REMARK  Name = /var/folders/yp/yjbh3p597675h2qddgqr02y00000gn/T/tmp7tfnmeu1.pdb
REMARK     285 UNITARY VALUES FOR THE UNIT CELL AUTOMATICALLY SET
REMARK     285 BY MDANALYSIS PDBWRITER BECAUSE UNIT CELL INFORMATION
REMARK     285 WAS MISSING.
REMARK     285 PROTEIN DATA BANK CONVENTIONS REQUIRE THAT
REMARK     285 CRYST1 RECORD IS INCLUDED, BUT THE VALUES ON
REMARK     285 THIS RECORD ARE MEANINGLESS.
REMARK     285 UNITARY VALUES FOR THE UNIT CELL AUTOMATICALLY SET
REMARK     285 BY MDANALYSIS PDBWRITER BECAUSE UNIT CELL INFORMATION
REMARK     285 WAS MISSING.
REMARK     285 PROTEIN DATA BANK CONVENTIONS REQUIRE THAT
REMARK     285 CRYST1 RECORD IS INCLUDED, BUT THE VALUES ON
REMARK     285 THIS RECORD ARE MEANINGLESS.
REMARK                            x       y       z     vdW  Elec       q    Type
REMARK                         _______ _______ _______ _____ _____    ______ ____
ROOT
ATOM      1  N   MET A   1      -9.054  12.038 -27.985  1.00  0.00    -0.123 NA
ATOM      2  CA  MET A   1     -10.287  11.962 -27.205  1.00  0.00    +0.170 C 
ATOM      3  C   MET A   1      -9.986  11.721 -25.736  1.00  0.00    +0.259 C 
ATOM      4  O   MET A   1      -9.019  11.037 -25.399  1.00  0.00    -0.272 OA
ATOM      5  CB  MET A   1     -11.190  10.856 -27.726  1.00  0.00    +0.040 C 
ATOM      6  CG  MET A   1     -10.854   9.482 -27.171  1.00  0.00    +0.060 C 
ATOM      7  SD  MET A   1     -11.563   8.138 -28.155  1.00  0.00    -0.139 S 
ATOM      8  CE  MET A   1     -12.865   9.013 -29.017  1.00  0.00    +0.069 C 
ATOM      9  N   LYS A   2     -10.812  12.281 -24.858  1.00  0.00    -0.197 N 
ATOM     10  CA  LYS A   2     -10.507  12.297 -23.430  1.00  0.00    +0.173 C 
ATOM     11  C   LYS A   2     -10.801  10.948 -22.792  1.00  0.00    +0.262 C 
ATOM     12  O   LYS A   2     -11.818  10.325 -23.092  1.00  0.00    -0.271 OA
ATOM     13  CB  LYS A   2     -11.305  13.379 -22.719  1.00  0.00    +0.031 C 
ATOM     14  CG  LYS A   2     -10.674  14.758 -22.795  1.00  0.00    +0.009 C 
ATOM     15  CD  LYS A   2     -11.544  15.815 -22.134  1.00  0.00    +0.049 C 
ATOM     16  CE  LYS A   2     -11.732  15.549 -20.712  1.00  0.00    +0.096 C 
ATOM     17  NZ  LYS A   2     -11.682  16.470 -19.754  1.00  0.00    -0.151 NA
ATOM     18  N   LEU A   3      -9.910  10.498 -21.913  1.00  0.00    -0.196 N 
ATOM     19  CA  LEU A   3     -10.316   9.690 -20.767  1.00  0.00    +0.173 C 
ATOM     20  C   LEU A   3     -10.999  10.548 -19.714  1.00  0.00    +0.262 C 
ATOM     21  O   LEU A   3     -10.531  11.641 -19.399  1.00  0.00    -0.271 OA
ATOM     22  CB  LEU A   3      -9.116   8.990 -20.150  1.00  0.00    +0.031 C 
ATOM     23  CG  LEU A   3      -8.390   7.983 -21.045  1.00  0.00    +0.002 C 
ATOM     24  CD1 LEU A   3      -8.015   6.741 -20.246  1.00  0.00    +0.000 C 
ATOM     25  CD2 LEU A   3      -6.986   8.477 -21.379  1.00  0.00    +0.000 C 
ATOM     26  N   ALA A   4     -12.107  10.054 -19.171  1.00  0.00    -0.196 N 
ATOM     27  CA  ALA A   4     -12.585  10.510 -17.868  1.00  0.00    +0.173 C 
ATOM     28  C   ALA A   4     -11.682  10.013 -16.751  1.00  0.00    +0.261 C 
ATOM     29  O   ALA A   4     -11.630  10.608 -15.676  1.00  0.00    -0.271 OA
ATOM     30  CB  ALA A   4     -14.008  10.038 -17.619  1.00  0.00    +0.033 C 
ATOM     31  N   VAL A   5     -10.965   8.922 -17.005  1.00  0.00    -0.202 N 
ATOM     32  CA  VAL A   5     -10.647   7.960 -15.953  1.00  0.00    +0.139 C 
ATOM     33  C   VAL A   5      -9.592   8.541 -15.027  1.00  0.00    +0.210 C 
ATOM     34  O   VAL A   5      -8.584   9.075 -15.487  1.00  0.00    -0.338 OA
ATOM     35  CB  VAL A   5     -10.151   6.641 -16.523  1.00  0.00    +0.024 C 
ATOM     36  CG1 VAL A   5     -10.648   5.468 -15.680  1.00  0.00    +0.002 C 
ATOM     37  CG2 VAL A   5     -10.667   6.448 -17.947  1.00  0.00    +0.002 C 
ATOM     38  N   PHE A   6      -9.823   8.439 -13.722  1.00  0.00    -0.182 NA
ATOM     39  CA  PHE A   6      -8.733   8.492 -12.750  1.00  0.00    +0.157 C 
ATOM     40  C   PHE A   6      -7.940   7.196 -12.760  1.00  0.00    +0.258 C 
ATOM     41  O   PHE A   6      -8.346   6.209 -12.147  1.00  0.00    -0.272 OA
ATOM     42  CB  PHE A   6      -9.267   8.750 -11.351  1.00  0.00    +0.053 C 
ATOM     43  CG  PHE A   6     -10.757   8.619 -11.236  1.00  0.00    -0.020 A 
ATOM     44  CD1 PHE A   6     -11.339   7.360 -11.137  1.00  0.00    -0.004 A 
ATOM     45  CE1 PHE A   6     -12.720   7.239 -11.030  1.00  0.00    -0.000 A 
ATOM     46  CD2 PHE A   6     -11.557   9.757 -11.228  1.00  0.00    -0.004 A 
ATOM     47  CE2 PHE A   6     -12.937   9.635 -11.122  1.00  0.00    -0.000 A 
ATOM     48  CZ  PHE A   6     -13.518   8.377 -11.023  1.00  0.00    -0.000 A 
ATOM     49  N   ALA A   7      -6.807   7.196 -13.455  1.00  0.00    -0.197 N 
ATOM     50  CA  ALA A   7      -5.688   8.061 -13.086  1.00  0.00    +0.173 C 
ATOM     51  C   ALA A   7      -6.016   9.521 -13.352  1.00  0.00    +0.262 C 
ATOM     52  O   ALA A   7      -5.328  10.415 -12.862  1.00  0.00    -0.271 OA
ATOM     53  CB  ALA A   7      -4.433   7.676 -13.852  1.00  0.00    +0.033 C 
ATOM     54  N   LEU A   8      -7.068   9.765 -14.129  1.00  0.00    -0.196 N 
ATOM     55  CA  LEU A   8      -7.101  10.916 -15.026  1.00  0.00    +0.173 C 
ATOM     56  C   LEU A   8      -7.447  12.186 -14.266  1.00  0.00    +0.262 C 
ATOM     57  O   LEU A   8      -7.117  13.286 -14.705  1.00  0.00    -0.271 OA
ATOM     58  CB  LEU A   8      -8.111  10.700 -16.142  1.00  0.00    +0.034 C 
ATOM     59  CG  LEU A   8      -7.737   9.659 -17.197  1.00  0.00    +0.032 C 
ATOM     60  CD1 LEU A   8      -8.788   9.623 -18.300  1.00  0.00    +0.003 C 
ATOM     61  CD2 LEU A   8      -7.925   8.249 -16.650  1.00  0.00    +0.144 C 
ATOM     62  N   LEU A   9      -8.112  12.034 -13.124  1.00  0.00    -0.196 N 
ATOM     63  CA  LEU A   9      -9.278  12.854 -12.808  1.00  0.00    +0.173 C 
ATOM     64  C   LEU A   9      -8.870  14.294 -12.537  1.00  0.00    +0.262 C 
ATOM     65  O   LEU A   9      -7.914  14.546 -11.806  1.00  0.00    -0.271 OA
ATOM     66  CB  LEU A   9     -10.014  12.301 -11.601  1.00  0.00    +0.031 C 
ATOM     67  CG  LEU A   9     -11.409  12.875 -11.341  1.00  0.00    +0.002 C 
ATOM     68  CD1 LEU A   9     -12.219  12.899 -12.633  1.00  0.00    +0.000 C 
ATOM     69  CD2 LEU A   9     -11.331  14.377 -11.089  1.00  0.00    +0.000 C 
ATOM     70  N   VAL A  10      -9.595  15.241 -13.128  1.00  0.00    -0.196 N 
ATOM     71  CA  VAL A  10      -9.803  16.541 -12.499  1.00  0.00    +0.173 C 
ATOM     72  C   VAL A  10     -11.293  16.824 -12.386  1.00  0.00    +0.262 C 
ATOM     73  O   VAL A  10     -12.036  16.657 -13.353  1.00  0.00    -0.271 OA
ATOM     74  CB  VAL A  10      -9.132  17.662 -13.275  1.00  0.00    +0.029 C 
ATOM     75  CG1 VAL A  10      -8.004  18.283 -12.457  1.00  0.00    +0.002 C 
ATOM     76  CG2 VAL A  10      -8.533  17.125 -14.572  1.00  0.00    +0.002 C 
ATOM     77  N   CYS A  11     -11.731  17.253 -11.206  1.00  0.00    -0.195 N 
ATOM     78  CA  CYS A  11     -12.614  16.435 -10.380  1.00  0.00    +0.184 C 
ATOM     79  C   CYS A  11     -13.989  16.310 -11.013  1.00  0.00    +0.263 C 
ATOM     80  O   CYS A  11     -14.842  15.574 -10.520  1.00  0.00    -0.271 OA
ATOM     81  CB  CYS A  11     -12.750  17.027  -8.986  1.00  0.00    +0.100 C 
ATOM     82  SG  CYS A  11     -11.235  16.934  -8.002  1.00  0.00    -0.080 S 
ATOM     83  N   PHE A  12     -14.208  17.033 -12.109  1.00  0.00    -0.196 N 
ATOM     84  CA  PHE A  12     -15.318  17.979 -12.187  1.00  0.00    +0.177 C 
ATOM     85  C   PHE A  12     -16.503  17.360 -12.910  1.00  0.00    +0.262 C 
ATOM     86  O   PHE A  12     -17.426  18.067 -13.314  1.00  0.00    -0.271 OA
ATOM     87  CB  PHE A  12     -14.896  19.252 -12.900  1.00  0.00    +0.057 C 
ATOM     88  CG  PHE A  12     -14.599  19.062 -14.358  1.00  0.00    -0.020 A 
ATOM     89  CD1 PHE A  12     -13.282  19.010 -14.797  1.00  0.00    -0.004 A 
ATOM     90  CE1 PHE A  12     -13.006  18.834 -16.149  1.00  0.00    -0.000 A 
ATOM     91  CD2 PHE A  12     -15.642  18.941 -15.269  1.00  0.00    -0.004 A 
ATOM     92  CE2 PHE A  12     -15.366  18.765 -16.621  1.00  0.00    -0.000 A 
ATOM     93  CZ  PHE A  12     -14.049  18.712 -17.059  1.00  0.00    -0.000 A 
ATOM     94  N   ALA A  13     -16.480  16.041 -13.073  1.00  0.00    -0.196 N 
ATOM     95  CA  ALA A  13     -17.683  15.299 -13.442  1.00  0.00    +0.173 C 
ATOM     96  C   ALA A  13     -18.624  15.160 -12.257  1.00  0.00    +0.262 C 
ATOM     97  O   ALA A  13     -18.191  14.850 -11.148  1.00  0.00    -0.271 OA
ATOM     98  CB  ALA A  13     -17.324  13.919 -13.970  1.00  0.00    +0.033 C 
ATOM     99  N   GLU A  14     -19.913  15.390 -12.489  1.00  0.00    -0.196 N 
ATOM    100  CA  GLU A  14     -20.954  14.769 -11.676  1.00  0.00    +0.173 C 
ATOM    101  C   GLU A  14     -21.068  13.283 -11.973  1.00  0.00    +0.262 C 
ATOM    102  O   GLU A  14     -20.425  12.778 -12.891  1.00  0.00    -0.271 OA
ATOM    103  CB  GLU A  14     -22.299  15.438 -11.914  1.00  0.00    +0.043 C 
ATOM    104  CG  GLU A  14     -23.438  14.826 -11.117  1.00  0.00    +0.116 C 
ATOM    105  CD  GLU A  14     -24.763  15.548 -11.308  1.00  0.00    +0.365 C 
ATOM    106  OE1 GLU A  14     -24.757  16.722 -11.737  1.00  0.00    -0.246 OA
ATOM    107  OE2 GLU A  14     -25.814  14.933 -11.027  1.00  0.00    -0.246 OA
ATOM    108  N   SER A  15     -21.885  12.580 -11.193  1.00  0.00    -0.194 N 
ATOM    109  CA  SER A  15     -22.533  11.363 -11.671  1.00  0.00    +0.205 C 
ATOM    110  C   SER A  15     -23.629  11.679 -12.677  1.00  0.00    +0.264 C 
ATOM    111  O   SER A  15     -24.189  12.776 -12.665  1.00  0.00    -0.271 OA
ATOM    112  CB  SER A  15     -23.122  10.577 -10.512  1.00  0.00    +0.213 C 
ATOM    113  OG  SER A  15     -24.260  11.235  -9.984  1.00  0.00    -0.218 OA
ATOM    114  N   SER A  16     -23.936  10.721 -13.545  1.00  0.00    -0.194 N 
ATOM    115  CA  SER A  16     -25.153  10.788 -14.352  1.00  0.00    +0.205 C 
ATOM    116  C   SER A  16     -26.393  10.583 -13.497  1.00  0.00    +0.264 C 
ATOM    117  O   SER A  16     -27.502  10.903 -13.919  1.00  0.00    -0.271 OA
ATOM    118  CB  SER A  16     -25.120   9.746 -15.457  1.00  0.00    +0.213 C 
ATOM    119  OG  SER A  16     -25.280   8.443 -14.924  1.00  0.00    -0.218 OA
ATOM    120  N   ASP A  17     -26.206  10.049 -12.294  1.00  0.00    -0.196 N 
ATOM    121  CA  ASP A  17     -27.274   9.329 -11.606  1.00  0.00    +0.184 C 
ATOM    122  C   ASP A  17     -28.169  10.289 -10.836  1.00  0.00    +0.262 C 
ATOM    123  O   ASP A  17     -29.244   9.906 -10.380  1.00  0.00    -0.271 OA
ATOM    124  CB  ASP A  17     -26.704   8.292 -10.653  1.00  0.00    +0.145 C 
ATOM    125  CG  ASP A  17     -25.440   7.632 -11.179  1.00  0.00    +0.367 C 
ATOM    126  OD1 ASP A  17     -25.088   7.843 -12.360  1.00  0.00    -0.246 OA
ATOM    127  OD2 ASP A  17     -24.792   6.894 -10.405  1.00  0.00    -0.246 OA
ATOM    128  N   LEU A  18     -27.723  11.533 -10.694  1.00  0.00    -0.196 N 
ATOM    129  CA  LEU A  18     -28.641  12.650 -10.488  1.00  0.00    +0.173 C 
ATOM    130  C   LEU A  18     -28.453  13.711 -11.561  1.00  0.00    +0.262 C 
ATOM    131  O   LEU A  18     -27.358  14.248 -11.724  1.00  0.00    -0.271 OA
ATOM    132  CB  LEU A  18     -28.434  13.273  -9.117  1.00  0.00    +0.031 C 
ATOM    133  CG  LEU A  18     -29.514  12.978  -8.074  1.00  0.00    +0.002 C 
ATOM    134  CD1 LEU A  18     -28.897  12.310  -6.851  1.00  0.00    +0.000 C 
ATOM    135  CD2 LEU A  18     -30.409  11.834  -8.537  1.00  0.00    +0.000 C 
ATOM    136  N   VAL A  19     -29.521  14.013 -12.294  1.00  0.00    -0.196 N 
ATOM    137  CA  VAL A  19     -29.426  14.180 -13.742  1.00  0.00    +0.173 C 
ATOM    138  C   VAL A  19     -29.493  15.658 -14.094  1.00  0.00    +0.262 C 
ATOM    139  O   VAL A  19     -30.237  16.414 -13.473  1.00  0.00    -0.271 OA
ATOM    140  CB  VAL A  19     -30.530  13.434 -14.472  1.00  0.00    +0.029 C 
ATOM    141  CG1 VAL A  19     -30.046  12.056 -14.919  1.00  0.00    +0.002 C 
ATOM    142  CG2 VAL A  19     -31.735  13.235 -13.553  1.00  0.00    +0.002 C 
ATOM    143  N   ARG A  20     -28.717  16.069 -15.091  1.00  0.00    -0.196 N 
ATOM    144  CA  ARG A  20     -29.244  16.254 -16.440  1.00  0.00    +0.173 C 
ATOM    145  C   ARG A  20     -29.738  14.937 -17.018  1.00  0.00    +0.262 C 
ATOM    146  O   ARG A  20     -30.885  14.833 -17.447  1.00  0.00    -0.271 OA
ATOM    147  CB  ARG A  20     -28.189  16.847 -17.359  1.00  0.00    +0.033 C 
ATOM    148  CG  ARG A  20     -27.246  15.815 -17.957  1.00  0.00    +0.024 C 
ATOM    149  CD  ARG A  20     -27.685  15.390 -19.348  1.00  0.00    +0.097 C 
ATOM    150  NE  ARG A  20     -26.615  14.700 -20.064  1.00  0.00    -0.246 NA
ATOM    151  CZ  ARG A  20     -26.804  13.789 -21.015  1.00  0.00    +0.260 C 
ATOM    152  NH1 ARG A  20     -25.817  12.971 -21.374  1.00  0.00    -0.108 NA
ATOM    153  NH2 ARG A  20     -27.988  13.694 -21.611  1.00  0.00    -0.108 N 
ATOM    154  N   ARG A  21     -28.869  13.929 -17.028  1.00  0.00    -0.194 N 
ATOM    155  CA  ARG A  21     -28.626  13.149 -18.237  1.00  0.00    +0.198 C 
ATOM    156  C   ARG A  21     -29.789  12.215 -18.527  1.00  0.00    +0.384 C 
ATOM    157  O   ARG A  21     -30.599  12.480 -19.414  1.00  0.00    -0.244 OA
ATOM    158  CB  ARG A  21     -27.344  12.339 -18.113  1.00  0.00    +0.037 C 
ATOM    159  CG  ARG A  21     -26.084  13.189 -18.069  1.00  0.00    +0.045 C 
ATOM    160  CD  ARG A  21     -25.818  13.873 -19.400  1.00  0.00    +0.172 C 
ATOM    161  NE  ARG A  21     -25.857  15.327 -19.275  1.00  0.00    -0.198 N 
ATOM    162  CZ  ARG A  21     -24.863  16.144 -19.614  1.00  0.00    +0.274 C 
ATOM    163  NH1 ARG A  21     -23.786  15.678 -20.241  1.00  0.00    -0.107 N 
ATOM    164  NH2 ARG A  21     -24.948  17.439 -19.324  1.00  0.00    -0.107 NA
ATOM    165  OXT ARG A  21     -29.935  11.180 -17.878  1.00  0.00    -0.244 OA
ATOM    166  H   MET A   1      -8.465  12.785 -27.618  1.00  0.00    +0.000 HD
ATOM    167  H   MET A   1      -9.280  12.232 -28.961  1.00  0.00    +0.000 HD
ATOM    168  H   LYS A   2     -11.647  12.693 -25.177  1.00  0.00    +0.000 HD
ATOM    169  H   LYS A   2     -11.508  17.410 -19.984  1.00  0.00    +0.000 HD
ATOM    170  H   LEU A   3      -8.957  10.714 -22.039  1.00  0.00    +0.000 HD
ATOM    171  H   ALA A   4     -12.617   9.366 -19.657  1.00  0.00    +0.000 HD
ATOM    172  H   VAL A   5     -10.643   8.759 -17.921  1.00  0.00    +0.000 HD
ATOM    173  H   PHE A   6     -10.459   9.199 -13.482  1.00  0.00    +0.000 HD
ATOM    174  H   ALA A   7      -6.719   6.601 -14.234  1.00  0.00    +0.000 HD
ATOM    175  H   LEU A   8      -7.841   9.155 -14.099  1.00  0.00    +0.000 HD
ATOM    176  H   LEU A   9      -7.812  11.355 -12.479  1.00  0.00    +0.000 HD
ATOM    177  H   VAL A  10      -9.998  15.061 -14.007  1.00  0.00    +0.000 HD
ATOM    178  H   CYS A  11     -11.454  18.140 -10.883  1.00  0.00    +0.000 HD
ATOM    179  H   CYS A  11     -10.255  17.653  -8.610  1.00  0.00    +0.000 HD
ATOM    180  H   PHE A  12     -13.609  16.927 -12.884  1.00  0.00    +0.000 HD
ATOM    181  H   ALA A  13     -15.634  15.555 -12.941  1.00  0.00    +0.000 HD
ATOM    182  H   GLU A  14     -20.170  15.992 -13.225  1.00  0.00    +0.000 HD
ATOM    183  H   GLU A  14     -25.770  14.053 -10.708  1.00  0.00    +0.000 HD
ATOM    184  H   SER A  15     -22.056  12.888 -10.273  1.00  0.00    +0.000 HD
ATOM    185  H   SER A  15     -24.937  11.313 -10.674  1.00  0.00    +0.000 HD
ATOM    186  H   SER A  16     -23.333   9.950 -13.646  1.00  0.00    +0.000 HD
ATOM    187  H   SER A  16     -24.556   8.255 -14.307  1.00  0.00    +0.000 HD
ATOM    188  H   ASP A  17     -25.328  10.141 -11.857  1.00  0.00    +0.000 HD
ATOM    189  H   ASP A  17     -25.601   8.404 -12.909  1.00  0.00    +0.000 HD
ATOM    190  H   LEU A  18     -26.754  11.705 -10.728  1.00  0.00    +0.000 HD
ATOM    191  H   VAL A  19     -30.393  14.127 -11.852  1.00  0.00    +0.000 HD
ATOM    192  H   ARG A  20     -27.765  16.253 -14.917  1.00  0.00    +0.000 HD
ATOM    193  H   ARG A  20     -24.938  13.038 -20.935  1.00  0.00    +0.000 HD
ATOM    194  H   ARG A  20     -28.722  14.297 -21.348  1.00  0.00    +0.000 HD
ATOM    195  H   ARG A  20     -28.132  13.022 -22.315  1.00  0.00    +0.000 HD
ATOM    196  H   ARG A  21     -28.380  13.705 -16.204  1.00  0.00    +0.000 HD
ATOM    197  H   ARG A  21     -30.502  13.264 -19.918  1.00  0.00    +0.000 HD
ATOM    198  H   ARG A  21     -23.056  16.291 -20.487  1.00  0.00    +0.000 HD
ATOM    199  H   ARG A  21     -23.719  14.721 -20.459  1.00  0.00    +0.000 HD
ATOM    200  H   ARG A  21     -24.216  18.048 -19.572  1.00  0.00    +0.000 HD
ENDROOT
TORSDOF 0
