REMARK  Name = /var/folders/yp/yjbh3p597675h2qddgqr02y00000gn/T/tmpzl1dskyy.pdb
REMARK     285 UNITARY VALUES FOR THE UNIT CELL AUTOMATICALLY SET
REMARK     285 BY MDANALYSIS PDBWRITER BECAUSE UNIT CELL INFORMATION
REMARK     285 WAS MISSING.
REMARK     285 PROTEIN DATA BANK CONVENTIONS REQUIRE THAT
REMARK     285 CRYST1 RECORD IS INCLUDED, BUT THE VALUES ON
REMARK     285 THIS RECORD ARE MEANINGLESS.
REMARK     285 UNITARY VALUES FOR THE UNIT CELL AUTOMATICALLY SET
REMARK     285 BY MDANALYSIS PDBWRITER BECAUSE UNIT CELL INFORMATION
REMARK     285 WAS MISSING.
REMARK     285 PROTEIN DATA BANK CONVENTIONS REQUIRE THAT
REMARK     285 CRYST1 RECORD IS INCLUDED, BUT THE VALUES ON
REMARK     285 THIS RECORD ARE MEANINGLESS.
REMARK                            x       y       z     vdW  Elec       q    Type
REMARK                         _______ _______ _______ _____ _____    ______ ____
REMARK  Name = /var/folders/yp/yjbh3p597675h2qddgqr02y00000gn/T/tmpzl1dskyy.pdb
REMARK     285 UNITARY VALUES FOR THE UNIT CELL AUTOMATICALLY SET
REMARK     285 BY MDANALYSIS PDBWRITER BECAUSE UNIT CELL INFORMATION
REMARK     285 WAS MISSING.
REMARK     285 PROTEIN DATA BANK CONVENTIONS REQUIRE THAT
REMARK     285 CRYST1 RECORD IS INCLUDED, BUT THE VALUES ON
REMARK     285 THIS RECORD ARE MEANINGLESS.
REMARK     285 UNITARY VALUES FOR THE UNIT CELL AUTOMATICALLY SET
REMARK     285 BY MDANALYSIS PDBWRITER BECAUSE UNIT CELL INFORMATION
REMARK     285 WAS MISSING.
REMARK     285 PROTEIN DATA BANK CONVENTIONS REQUIRE THAT
REMARK     285 CRYST1 RECORD IS INCLUDED, BUT THE VALUES ON
REMARK     285 THIS RECORD ARE MEANINGLESS.
REMARK                            x       y       z     vdW  Elec       q    Type
REMARK                         _______ _______ _______ _____ _____    ______ ____
ROOT
ATOM      1  N   MET A   1      -1.043  16.342 -15.631  1.00  0.00    -0.123 NA
ATOM      2  CA  MET A   1      -0.531  16.481 -16.992  1.00  0.00    +0.170 C 
ATOM      3  C   MET A   1      -1.628  16.938 -17.941  1.00  0.00    +0.259 C 
ATOM      4  O   MET A   1      -2.761  16.467 -17.859  1.00  0.00    -0.272 OA
ATOM      5  CB  MET A   1       0.052  15.167 -17.488  1.00  0.00    +0.040 C 
ATOM      6  CG  MET A   1       1.195  14.645 -16.633  1.00  0.00    +0.060 C 
ATOM      7  SD  MET A   1       1.412  12.854 -16.772  1.00  0.00    -0.139 S 
ATOM      8  CE  MET A   1       1.476  12.668 -18.551  1.00  0.00    +0.069 C 
ATOM      9  N   LYS A   2      -1.291  17.857 -18.841  1.00  0.00    -0.197 N 
ATOM     10  CA  LYS A   2      -2.281  18.426 -19.753  1.00  0.00    +0.173 C 
ATOM     11  C   LYS A   2      -2.548  17.491 -20.922  1.00  0.00    +0.262 C 
ATOM     12  O   LYS A   2      -1.620  16.910 -21.479  1.00  0.00    -0.271 OA
ATOM     13  CB  LYS A   2      -1.819  19.776 -20.278  1.00  0.00    +0.034 C 
ATOM     14  CG  LYS A   2      -2.892  20.539 -21.036  1.00  0.00    +0.038 C 
ATOM     15  CD  LYS A   2      -2.299  21.645 -21.894  1.00  0.00    +0.160 C 
ATOM     16  CE  LYS A   2      -1.338  21.121 -22.860  1.00  0.00    +0.125 C 
ATOM     17  NZ  LYS A   2      -1.627  20.783 -24.113  1.00  0.00    -0.149 NA
ATOM     18  N   LEU A   3      -3.818  17.347 -21.291  1.00  0.00    -0.196 N 
ATOM     19  CA  LEU A   3      -4.239  17.581 -22.670  1.00  0.00    +0.173 C 
ATOM     20  C   LEU A   3      -4.143  19.057 -23.021  1.00  0.00    +0.262 C 
ATOM     21  O   LEU A   3      -4.277  19.916 -22.152  1.00  0.00    -0.271 OA
ATOM     22  CB  LEU A   3      -5.664  17.100 -22.886  1.00  0.00    +0.031 C 
ATOM     23  CG  LEU A   3      -5.917  15.612 -22.634  1.00  0.00    +0.002 C 
ATOM     24  CD1 LEU A   3      -7.077  15.120 -23.491  1.00  0.00    +0.000 C 
ATOM     25  CD2 LEU A   3      -6.540  15.400 -21.257  1.00  0.00    +0.000 C 
ATOM     26  N   ALA A   4      -3.911  19.352 -24.297  1.00  0.00    -0.196 N 
ATOM     27  CA  ALA A   4      -4.727  20.328 -25.014  1.00  0.00    +0.173 C 
ATOM     28  C   ALA A   4      -6.058  19.726 -25.432  1.00  0.00    +0.262 C 
ATOM     29  O   ALA A   4      -7.054  20.436 -25.567  1.00  0.00    -0.271 OA
ATOM     30  CB  ALA A   4      -3.996  20.847 -26.241  1.00  0.00    +0.034 C 
ATOM     31  N   VAL A   5      -6.080  18.411 -25.636  1.00  0.00    -0.196 N 
ATOM     32  CA  VAL A   5      -4.849  17.658 -25.862  1.00  0.00    +0.173 C 
ATOM     33  C   VAL A   5      -4.364  17.879 -27.284  1.00  0.00    +0.262 C 
ATOM     34  O   VAL A   5      -4.065  16.923 -27.998  1.00  0.00    -0.271 OA
ATOM     35  CB  VAL A   5      -5.043  16.170 -25.617  1.00  0.00    +0.029 C 
ATOM     36  CG1 VAL A   5      -4.467  15.765 -24.262  1.00  0.00    +0.002 C 
ATOM     37  CG2 VAL A   5      -6.529  15.819 -25.620  1.00  0.00    +0.002 C 
ATOM     38  N   PHE A   6      -4.287  19.140 -27.699  1.00  0.00    -0.194 N 
ATOM     39  CA  PHE A   6      -5.484  19.904 -28.039  1.00  0.00    +0.201 C 
ATOM     40  C   PHE A   6      -6.135  19.355 -29.297  1.00  0.00    +0.264 C 
ATOM     41  O   PHE A   6      -5.576  19.463 -30.388  1.00  0.00    -0.271 OA
ATOM     42  CB  PHE A   6      -5.151  21.373 -28.240  1.00  0.00    -0.009 C 
ATOM     43  CG  PHE A   6      -4.741  22.080 -26.982  1.00  0.00    +0.027 C 
ATOM     44  CD1 PHE A   6      -3.467  21.887 -26.461  1.00  0.00    +0.007 C 
ATOM     45  CE1 PHE A   6      -3.086  22.542 -25.294  1.00  0.00    +0.008 C 
ATOM     46  CD2 PHE A   6      -5.635  22.927 -26.336  1.00  0.00    -0.031 C 
ATOM     47  CE2 PHE A   6      -5.254  23.581 -25.170  1.00  0.00    -0.029 C 
ATOM     48  CZ  PHE A   6      -3.980  23.388 -24.649  1.00  0.00    +0.044 C 
ATOM     49  N   ALA A   7      -7.317  18.763 -29.148  1.00  0.00    -0.196 N 
ATOM     50  CA  ALA A   7      -8.494  19.218 -29.884  1.00  0.00    +0.173 C 
ATOM     51  C   ALA A   7      -8.994  20.548 -29.346  1.00  0.00    +0.262 C 
ATOM     52  O   ALA A   7      -9.825  21.204 -29.975  1.00  0.00    -0.271 OA
ATOM     53  CB  ALA A   7      -9.608  18.188 -29.809  1.00  0.00    +0.033 C 
ATOM     54  N   LEU A   8      -8.491  20.948 -28.181  1.00  0.00    -0.196 N 
ATOM     55  CA  LEU A   8      -8.891  22.213 -27.574  1.00  0.00    +0.173 C 
ATOM     56  C   LEU A   8      -8.258  23.387 -28.304  1.00  0.00    +0.262 C 
ATOM     57  O   LEU A   8      -8.769  24.506 -28.246  1.00  0.00    -0.271 OA
ATOM     58  CB  LEU A   8      -8.498  22.256 -26.106  1.00  0.00    +0.031 C 
ATOM     59  CG  LEU A   8      -9.332  21.390 -25.161  1.00  0.00    +0.002 C 
ATOM     60  CD1 LEU A   8      -8.974  21.695 -23.711  1.00  0.00    +0.000 C 
ATOM     61  CD2 LEU A   8      -8.870  19.937 -25.214  1.00  0.00    +0.000 C 
ATOM     62  N   LEU A   9      -7.147  23.136 -28.989  1.00  0.00    -0.196 N 
ATOM     63  CA  LEU A   9      -6.105  24.146 -29.147  1.00  0.00    +0.173 C 
ATOM     64  C   LEU A   9      -6.536  25.218 -30.134  1.00  0.00    +0.262 C 
ATOM     65  O   LEU A   9      -7.239  24.931 -31.102  1.00  0.00    -0.271 OA
ATOM     66  CB  LEU A   9      -4.808  23.512 -29.619  1.00  0.00    +0.035 C 
ATOM     67  CG  LEU A   9      -3.709  23.363 -28.566  1.00  0.00    +0.000 C 
ATOM     68  CD2 LEU A   9      -2.415  24.009 -29.047  1.00  0.00    +0.000 C 
ATOM     69  N   VAL A  10      -6.116  26.457 -29.892  1.00  0.00    -0.196 N 
ATOM     70  CA  VAL A  10      -5.408  26.793 -28.661  1.00  0.00    +0.173 C 
ATOM     71  C   VAL A  10      -6.158  27.888 -27.919  1.00  0.00    +0.262 C 
ATOM     72  O   VAL A  10      -6.694  28.806 -28.538  1.00  0.00    -0.271 OA
ATOM     73  CB  VAL A  10      -3.983  27.247 -28.930  1.00  0.00    +0.029 C 
ATOM     74  CG1 VAL A  10      -3.425  28.014 -27.736  1.00  0.00    +0.002 C 
ATOM     75  CG2 VAL A  10      -3.079  26.041 -29.180  1.00  0.00    +0.002 C 
ATOM     76  N   CYS A  11      -6.195  27.793 -26.593  1.00  0.00    -0.195 N 
ATOM     77  CA  CYS A  11      -5.020  27.385 -25.828  1.00  0.00    +0.184 C 
ATOM     78  C   CYS A  11      -4.911  25.870 -25.770  1.00  0.00    +0.262 C 
ATOM     79  O   CYS A  11      -5.885  25.162 -26.023  1.00  0.00    -0.271 OA
ATOM     80  CB  CYS A  11      -5.076  27.944 -24.416  1.00  0.00    +0.100 C 
ATOM     81  SG  CYS A  11      -4.842  29.734 -24.329  1.00  0.00    -0.080 S 
ATOM     82  N   PHE A  12      -3.724  25.371 -25.438  1.00  0.00    -0.203 N 
ATOM     83  CA  PHE A  12      -3.583  23.997 -24.962  1.00  0.00    +0.123 C 
ATOM     84  C   PHE A  12      -3.043  23.971 -23.541  1.00  0.00    +0.209 C 
ATOM     85  O   PHE A  12      -3.088  22.937 -22.875  1.00  0.00    -0.334 OA
ATOM     86  CB  PHE A  12      -2.661  23.200 -25.871  1.00  0.00    +0.025 C 
ATOM     87  CG  PHE A  12      -3.203  22.990 -27.253  1.00  0.00    +0.004 C 
ATOM     88  CD1 PHE A  12      -2.748  23.775 -28.305  1.00  0.00    +0.000 C 
ATOM     89  CE1 PHE A  12      -3.250  23.580 -29.587  1.00  0.00    +0.004 C 
ATOM     90  CD2 PHE A  12      -4.164  22.012 -27.481  1.00  0.00    +0.019 C 
ATOM     91  CE2 PHE A  12      -4.668  21.817 -28.762  1.00  0.00    -0.045 C 
ATOM     92  CZ  PHE A  12      -4.211  22.601 -29.814  1.00  0.00    +0.020 C 
ATOM     93  N   ALA A  13      -2.534  25.107 -23.076  1.00  0.00    -0.183 NA
ATOM     94  CA  ALA A  13      -1.336  25.118 -22.240  1.00  0.00    +0.153 C 
ATOM     95  C   ALA A  13      -1.680  24.815 -20.791  1.00  0.00    +0.258 C 
ATOM     96  O   ALA A  13      -2.695  25.284 -20.278  1.00  0.00    -0.272 OA
ATOM     97  CB  ALA A  13      -0.632  26.463 -22.324  1.00  0.00    +0.029 C 
ATOM     98  N   GLU A  14      -0.834  24.030 -20.129  1.00  0.00    -0.197 N 
ATOM     99  CA  GLU A  14      -0.317  24.408 -18.817  1.00  0.00    +0.173 C 
ATOM    100  C   GLU A  14       0.651  25.573 -18.921  1.00  0.00    +0.262 C 
ATOM    101  O   GLU A  14       1.410  25.670 -19.885  1.00  0.00    -0.271 OA
ATOM    102  CB  GLU A  14       0.376  23.230 -18.150  1.00  0.00    +0.043 C 
ATOM    103  CG  GLU A  14       0.941  23.549 -16.775  1.00  0.00    +0.116 C 
ATOM    104  CD  GLU A  14      -0.133  23.767 -15.721  1.00  0.00    +0.365 C 
ATOM    105  OE1 GLU A  14      -1.116  22.997 -15.688  1.00  0.00    -0.246 OA
ATOM    106  OE2 GLU A  14       0.013  24.717 -14.922  1.00  0.00    -0.246 OA
ATOM    107  N   SER A  15       0.627  26.460 -17.931  1.00  0.00    -0.194 N 
ATOM    108  CA  SER A  15       1.654  27.490 -17.806  1.00  0.00    +0.205 C 
ATOM    109  C   SER A  15       2.999  26.886 -17.435  1.00  0.00    +0.264 C 
ATOM    110  O   SER A  15       3.070  25.731 -17.017  1.00  0.00    -0.271 OA
ATOM    111  CB  SER A  15       1.256  28.521 -16.764  1.00  0.00    +0.213 C 
ATOM    112  OG  SER A  15       1.489  28.029 -15.455  1.00  0.00    -0.218 OA
ATOM    113  N   SER A  16       4.065  27.666 -17.585  1.00  0.00    -0.194 N 
ATOM    114  CA  SER A  16       5.341  27.128 -18.050  1.00  0.00    +0.205 C 
ATOM    115  C   SER A  16       5.843  26.027 -17.129  1.00  0.00    +0.264 C 
ATOM    116  O   SER A  16       6.862  25.399 -17.405  1.00  0.00    -0.271 OA
ATOM    117  CB  SER A  16       6.385  28.228 -18.140  1.00  0.00    +0.213 C 
ATOM    118  OG  SER A  16       5.823  29.413 -18.677  1.00  0.00    -0.218 OA
ATOM    119  N   ASP A  17       5.124  25.792 -16.034  1.00  0.00    -0.196 N 
ATOM    120  CA  ASP A  17       5.762  25.475 -14.760  1.00  0.00    +0.184 C 
ATOM    121  C   ASP A  17       6.090  23.993 -14.668  1.00  0.00    +0.262 C 
ATOM    122  O   ASP A  17       6.803  23.567 -13.761  1.00  0.00    -0.271 OA
ATOM    123  CB  ASP A  17       4.872  25.872 -13.593  1.00  0.00    +0.145 C 
ATOM    124  CG  ASP A  17       4.188  27.214 -13.796  1.00  0.00    +0.367 C 
ATOM    125  OD1 ASP A  17       4.886  28.222 -14.044  1.00  0.00    -0.246 OA
ATOM    126  OD2 ASP A  17       2.943  27.264 -13.705  1.00  0.00    -0.246 OA
ATOM    127  N   LEU A  18       5.568  23.209 -15.608  1.00  0.00    -0.196 N 
ATOM    128  CA  LEU A  18       5.092  21.864 -15.297  1.00  0.00    +0.173 C 
ATOM    129  C   LEU A  18       5.909  20.816 -16.034  1.00  0.00    +0.262 C 
ATOM    130  O   LEU A  18       5.989  20.836 -17.262  1.00  0.00    -0.271 OA
ATOM    131  CB  LEU A  18       3.626  21.714 -15.662  1.00  0.00    +0.031 C 
ATOM    132  CG  LEU A  18       2.913  20.484 -15.093  1.00  0.00    +0.002 C 
ATOM    133  CD1 LEU A  18       2.030  19.846 -16.159  1.00  0.00    +0.000 C 
ATOM    134  CD2 LEU A  18       1.825  20.902 -14.110  1.00  0.00    +0.000 C 
ATOM    135  N   VAL A  19       6.517  19.897 -15.288  1.00  0.00    -0.196 N 
ATOM    136  CA  VAL A  19       7.050  20.221 -13.968  1.00  0.00    +0.173 C 
ATOM    137  C   VAL A  19       8.562  20.363 -14.046  1.00  0.00    +0.262 C 
ATOM    138  O   VAL A  19       9.215  19.668 -14.821  1.00  0.00    -0.271 OA
ATOM    139  CB  VAL A  19       6.692  19.165 -12.936  1.00  0.00    +0.031 C 
ATOM    140  CG1 VAL A  19       5.248  19.336 -12.467  1.00  0.00    +0.002 C 
ATOM    141  CG2 VAL A  19       6.830  17.767 -13.536  1.00  0.00    +0.027 C 
ATOM    142  N   ARG A  20       9.118  21.265 -13.242  1.00  0.00    -0.196 N 
ATOM    143  CA  ARG A  20      10.199  20.905 -12.328  1.00  0.00    +0.173 C 
ATOM    144  C   ARG A  20       9.658  20.188 -11.101  1.00  0.00    +0.262 C 
ATOM    145  O   ARG A  20       9.872  20.629  -9.974  1.00  0.00    -0.271 OA
ATOM    146  CB  ARG A  20      10.974  22.138 -11.894  1.00  0.00    +0.033 C 
ATOM    147  CG  ARG A  20      12.040  21.855 -10.847  1.00  0.00    +0.029 C 
ATOM    148  CD  ARG A  20      12.777  23.118 -10.437  1.00  0.00    +0.129 C 
ATOM    149  NE  ARG A  20      11.873  24.260 -10.326  1.00  0.00    -0.234 NA
ATOM    150  CZ  ARG A  20      11.914  25.340 -11.101  1.00  0.00    +0.284 C 
ATOM    151  NH1 ARG A  20      12.866  25.478 -12.021  1.00  0.00    -0.104 N 
ATOM    152  NH2 ARG A  20      10.995  26.291 -10.954  1.00  0.00    -0.104 N 
ATOM    153  N   ARG A  21       8.956  19.079 -11.320  1.00  0.00    -0.194 N 
ATOM    154  CA  ARG A  21       8.323  18.353 -10.225  1.00  0.00    +0.198 C 
ATOM    155  C   ARG A  21       9.317  17.436  -9.531  1.00  0.00    +0.384 C 
ATOM    156  O   ARG A  21       9.052  16.937  -8.439  1.00  0.00    -0.244 OA
ATOM    157  CB  ARG A  21       7.143  17.534 -10.726  1.00  0.00    +0.035 C 
ATOM    158  CG  ARG A  21       6.795  17.790 -12.183  1.00  0.00    +0.027 C 
ATOM    159  CD  ARG A  21       5.566  17.005 -12.616  1.00  0.00    +0.107 C 
ATOM    160  NE  ARG A  21       4.460  17.178 -11.678  1.00  0.00    -0.236 NA
ATOM    161  CZ  ARG A  21       4.498  16.848 -10.390  1.00  0.00    +0.284 C 
ATOM    162  NH1 ARG A  21       5.610  16.358  -9.848  1.00  0.00    -0.104 N 
ATOM    163  NH2 ARG A  21       3.413  17.010  -9.637  1.00  0.00    -0.104 N 
ATOM    164  OXT ARG A  21      10.401  17.180 -10.055  1.00  0.00    -0.244 OA
ATOM    165  H   MET A   1      -0.291  16.035 -15.015  1.00  0.00    +0.000 HD
ATOM    166  H   MET A   1      -1.795  15.653 -15.619  1.00  0.00    +0.000 HD
ATOM    167  H   LYS A   2      -0.356  18.160 -18.895  1.00  0.00    +0.000 HD
ATOM    168  H   LYS A   2      -2.548  20.880 -24.449  1.00  0.00    +0.000 HD
ATOM    169  H   LEU A   3      -4.488  17.079 -20.622  1.00  0.00    +0.000 HD
ATOM    170  H   ALA A   4      -3.173  18.902 -24.769  1.00  0.00    +0.000 HD
ATOM    171  H   VAL A   5      -6.943  17.937 -25.635  1.00  0.00    +0.000 HD
ATOM    172  H   PHE A   6      -3.404  19.567 -27.780  1.00  0.00    +0.000 HD
ATOM    173  H   ALA A   7      -7.400  18.002 -28.529  1.00  0.00    +0.000 HD
ATOM    174  H   LEU A   8      -7.836  20.378 -27.718  1.00  0.00    +0.000 HD
ATOM    175  H   LEU A   9      -7.025  22.249 -29.398  1.00  0.00    +0.000 HD
ATOM    176  H   VAL A  10      -6.286  27.162 -30.558  1.00  0.00    +0.000 HD
ATOM    177  H   CYS A  11      -7.032  28.002 -26.118  1.00  0.00    +0.000 HD
ATOM    178  H   CYS A  11      -3.606  30.052 -24.799  1.00  0.00    +0.000 HD
ATOM    179  H   PHE A  12      -2.923  25.939 -25.514  1.00  0.00    +0.000 HD
ATOM    180  H   ALA A  13      -3.271  25.550 -22.529  1.00  0.00    +0.000 HD
ATOM    181  H   GLU A  14      -0.551  23.178 -20.532  1.00  0.00    +0.000 HD
ATOM    182  H   GLU A  14       0.767  25.270 -14.984  1.00  0.00    +0.000 HD
ATOM    183  H   SER A  15      -0.099  26.421 -17.268  1.00  0.00    +0.000 HD
ATOM    184  H   SER A  15       0.959  27.229 -15.311  1.00  0.00    +0.000 HD
ATOM    185  H   SER A  16       3.992  28.626 -17.379  1.00  0.00    +0.000 HD
ATOM    186  H   SER A  16       5.488  29.236 -19.570  1.00  0.00    +0.000 HD
ATOM    187  H   ASP A  17       4.142  25.833 -16.085  1.00  0.00    +0.000 HD
ATOM    188  H   ASP A  17       5.818  28.143 -14.105  1.00  0.00    +0.000 HD
ATOM    189  H   LEU A  18       5.501  23.542 -16.532  1.00  0.00    +0.000 HD
ATOM    190  H   VAL A  19       6.608  18.980 -15.633  1.00  0.00    +0.000 HD
ATOM    191  H   ARG A  20       8.795  22.194 -13.263  1.00  0.00    +0.000 HD
ATOM    192  H   ARG A  20      13.547  24.777 -12.134  1.00  0.00    +0.000 HD
ATOM    193  H   ARG A  20      12.888  26.281 -12.590  1.00  0.00    +0.000 HD
ATOM    194  H   ARG A  20      10.290  26.193 -10.274  1.00  0.00    +0.000 HD
ATOM    195  H   ARG A  20      11.021  27.093 -11.524  1.00  0.00    +0.000 HD
ATOM    196  H   ARG A  21       8.862  18.742 -12.240  1.00  0.00    +0.000 HD
ATOM    197  H   ARG A  21       8.232  17.122  -8.026  1.00  0.00    +0.000 HD
ATOM    198  H   ARG A  21       6.415  16.237 -10.401  1.00  0.00    +0.000 HD
ATOM    199  H   ARG A  21       5.627  16.117  -8.894  1.00  0.00    +0.000 HD
ATOM    200  H   ARG A  21       2.589  17.372 -10.034  1.00  0.00    +0.000 HD
ATOM    201  H   ARG A  21       3.436  16.767  -8.683  1.00  0.00    +0.000 HD
ATOM      1  CD1 LEU A   9      -3.992  24.271 -27.374  1.00  0.00    +0.000 C 
ENDROOT
TORSDOF 0
