REMARK  Name = /var/folders/yp/yjbh3p597675h2qddgqr02y00000gn/T/tmp46uvohhn.pdb
REMARK     285 UNITARY VALUES FOR THE UNIT CELL AUTOMATICALLY SET
REMARK     285 BY MDANALYSIS PDBWRITER BECAUSE UNIT CELL INFORMATION
REMARK     285 WAS MISSING.
REMARK     285 PROTEIN DATA BANK CONVENTIONS REQUIRE THAT
REMARK     285 CRYST1 RECORD IS INCLUDED, BUT THE VALUES ON
REMARK     285 THIS RECORD ARE MEANINGLESS.
REMARK     285 UNITARY VALUES FOR THE UNIT CELL AUTOMATICALLY SET
REMARK     285 BY MDANALYSIS PDBWRITER BECAUSE UNIT CELL INFORMATION
REMARK     285 WAS MISSING.
REMARK     285 PROTEIN DATA BANK CONVENTIONS REQUIRE THAT
REMARK     285 CRYST1 RECORD IS INCLUDED, BUT THE VALUES ON
REMARK     285 THIS RECORD ARE MEANINGLESS.
REMARK                            x       y       z     vdW  Elec       q    Type
REMARK                         _______ _______ _______ _____ _____    ______ ____
ROOT
ATOM      1  N   MET A   1      20.282   3.701  -4.155  1.00  0.00    -0.123 NA
ATOM      2  CA  MET A   1      21.316   3.460  -3.153  1.00  0.00    +0.170 C 
ATOM      3  C   MET A   1      21.630   4.730  -2.379  1.00  0.00    +0.259 C 
ATOM      4  O   MET A   1      21.662   5.818  -2.951  1.00  0.00    -0.272 OA
ATOM      5  CB  MET A   1      22.586   2.935  -3.803  1.00  0.00    +0.040 C 
ATOM      6  CG  MET A   1      23.691   2.613  -2.809  1.00  0.00    +0.060 C 
ATOM      7  SD  MET A   1      23.330   1.145  -1.814  1.00  0.00    -0.139 S 
ATOM      8  CE  MET A   1      21.649   1.497  -1.307  1.00  0.00    +0.069 C 
ATOM      9  N   LYS A   2      21.863   4.592  -1.078  1.00  0.00    -0.197 N 
ATOM     10  CA  LYS A   2      21.846   5.742  -0.177  1.00  0.00    +0.173 C 
ATOM     11  C   LYS A   2      22.980   6.703  -0.494  1.00  0.00    +0.262 C 
ATOM     12  O   LYS A   2      23.967   6.318  -1.117  1.00  0.00    -0.271 OA
ATOM     13  CB  LYS A   2      21.951   5.294   1.273  1.00  0.00    +0.031 C 
ATOM     14  CG  LYS A   2      20.748   5.669   2.121  1.00  0.00    +0.009 C 
ATOM     15  CD  LYS A   2      21.147   6.025   3.543  1.00  0.00    +0.049 C 
ATOM     16  CE  LYS A   2      21.729   7.361   3.622  1.00  0.00    +0.096 C 
ATOM     17  NZ  LYS A   2      22.250   7.898   4.722  1.00  0.00    -0.151 NA
ATOM     18  N   LEU A   3      22.838   7.954  -0.067  1.00  0.00    -0.196 N 
ATOM     19  CA  LEU A   3      23.944   8.673   0.558  1.00  0.00    +0.173 C 
ATOM     20  C   LEU A   3      24.312   8.045   1.893  1.00  0.00    +0.262 C 
ATOM     21  O   LEU A   3      23.435   7.705   2.686  1.00  0.00    -0.271 OA
ATOM     22  CB  LEU A   3      23.586  10.135   0.766  1.00  0.00    +0.031 C 
ATOM     23  CG  LEU A   3      23.488  10.991  -0.498  1.00  0.00    +0.002 C 
ATOM     24  CD1 LEU A   3      24.436  12.182  -0.404  1.00  0.00    +0.000 C 
ATOM     25  CD2 LEU A   3      22.166  11.749  -0.531  1.00  0.00    +0.000 C 
ATOM     26  N   ALA A   4      25.609   7.892   2.143  1.00  0.00    -0.196 N 
ATOM     27  CA  ALA A   4      26.179   8.233   3.444  1.00  0.00    +0.173 C 
ATOM     28  C   ALA A   4      26.238   9.740   3.636  1.00  0.00    +0.262 C 
ATOM     29  O   ALA A   4      25.947  10.245   4.720  1.00  0.00    -0.271 OA
ATOM     30  CB  ALA A   4      27.574   7.647   3.592  1.00  0.00    +0.033 C 
ATOM     31  N   VAL A   5      26.614  10.460   2.583  1.00  0.00    -0.196 N 
ATOM     32  CA  VAL A   5      27.645  11.487   2.694  1.00  0.00    +0.173 C 
ATOM     33  C   VAL A   5      27.037  12.858   2.450  1.00  0.00    +0.262 C 
ATOM     34  O   VAL A   5      26.452  13.103   1.396  1.00  0.00    -0.271 OA
ATOM     35  CB  VAL A   5      28.783  11.256   1.712  1.00  0.00    +0.029 C 
ATOM     36  CG1 VAL A   5      30.008  12.083   2.100  1.00  0.00    +0.002 C 
ATOM     37  CG2 VAL A   5      29.191   9.784   1.707  1.00  0.00    +0.002 C 
ATOM     38  N   PHE A   6      27.174  13.752   3.424  1.00  0.00    -0.196 N 
ATOM     39  CA  PHE A   6      27.542  15.136   3.140  1.00  0.00    +0.173 C 
ATOM     40  C   PHE A   6      28.995  15.228   2.704  1.00  0.00    +0.262 C 
ATOM     41  O   PHE A   6      29.865  14.586   3.291  1.00  0.00    -0.271 OA
ATOM     42  CB  PHE A   6      27.321  16.018   4.359  1.00  0.00    +0.031 C 
ATOM     43  CG  PHE A   6      25.880  16.337   4.623  1.00  0.00    +0.006 C 
ATOM     44  CD1 PHE A   6      25.189  15.655   5.618  1.00  0.00    +0.005 C 
ATOM     45  CE1 PHE A   6      23.852  15.951   5.864  1.00  0.00    +0.026 C 
ATOM     46  CD2 PHE A   6      25.236  17.315   3.874  1.00  0.00    +0.020 C 
ATOM     47  CE2 PHE A   6      23.899  17.611   4.120  1.00  0.00    -0.031 C 
ATOM     48  CZ  PHE A   6      23.208  16.929   5.115  1.00  0.00    -0.031 C 
ATOM     49  N   ALA A   7      29.259  16.026   1.673  1.00  0.00    -0.196 N 
ATOM     50  CA  ALA A   7      30.041  17.249   1.840  1.00  0.00    +0.173 C 
ATOM     51  C   ALA A   7      29.301  18.256   2.704  1.00  0.00    +0.262 C 
ATOM     52  O   ALA A   7      29.924  19.061   3.397  1.00  0.00    -0.271 OA
ATOM     53  CB  ALA A   7      30.358  17.874   0.491  1.00  0.00    +0.033 C 
ATOM     54  N   LEU A   8      27.971  18.215   2.664  1.00  0.00    -0.196 N 
ATOM     55  CA  LEU A   8      27.266  17.173   1.925  1.00  0.00    +0.173 C 
ATOM     56  C   LEU A   8      27.515  17.306   0.431  1.00  0.00    +0.262 C 
ATOM     57  O   LEU A   8      28.136  16.435  -0.177  1.00  0.00    -0.271 OA
ATOM     58  CB  LEU A   8      25.772  17.236   2.199  1.00  0.00    +0.033 C 
ATOM     59  CG  LEU A   8      25.118  15.937   2.673  1.00  0.00    +0.003 C 
ATOM     60  CD1 LEU A   8      23.689  15.843   2.148  1.00  0.00    +0.000 C 
ATOM     61  CD2 LEU A   8      24.815  16.002   4.166  1.00  0.00    +0.004 C 
ATOM     62  N   LEU A   9      27.031  18.394  -0.160  1.00  0.00    -0.196 N 
ATOM     63  CA  LEU A   9      25.767  18.364  -0.890  1.00  0.00    +0.173 C 
ATOM     64  C   LEU A   9      25.826  17.363  -2.034  1.00  0.00    +0.262 C 
ATOM     65  O   LEU A   9      26.625  17.515  -2.957  1.00  0.00    -0.271 OA
ATOM     66  CB  LEU A   9      25.431  19.740  -1.439  1.00  0.00    +0.031 C 
ATOM     67  CG  LEU A   9      24.030  20.268  -1.116  1.00  0.00    +0.002 C 
ATOM     68  CD1 LEU A   9      23.791  20.245   0.389  1.00  0.00    +0.000 C 
ATOM     69  CD2 LEU A   9      22.967  19.260  -1.536  1.00  0.00    +0.000 C 
ATOM     70  N   VAL A  10      24.983  16.337  -1.973  1.00  0.00    -0.196 N 
ATOM     71  CA  VAL A  10      24.773  15.457  -3.120  1.00  0.00    +0.173 C 
ATOM     72  C   VAL A  10      24.358  16.279  -4.329  1.00  0.00    +0.262 C 
ATOM     73  O   VAL A  10      23.341  16.971  -4.295  1.00  0.00    -0.271 OA
ATOM     74  CB  VAL A  10      23.717  14.401  -2.837  1.00  0.00    +0.029 C 
ATOM     75  CG1 VAL A  10      23.861  13.224  -3.797  1.00  0.00    +0.002 C 
ATOM     76  CG2 VAL A  10      23.863  13.869  -1.413  1.00  0.00    +0.002 C 
ATOM     77  N   CYS A  11      25.143  16.203  -5.399  1.00  0.00    -0.195 N 
ATOM     78  CA  CYS A  11      24.587  16.150  -6.747  1.00  0.00    +0.184 C 
ATOM     79  C   CYS A  11      23.681  14.941  -6.913  1.00  0.00    +0.263 C 
ATOM     80  O   CYS A  11      22.650  15.018  -7.578  1.00  0.00    -0.271 OA
ATOM     81  CB  CYS A  11      25.696  16.099  -7.786  1.00  0.00    +0.100 C 
ATOM     82  SG  CYS A  11      26.656  17.626  -7.904  1.00  0.00    -0.080 S 
ATOM     83  N   PHE A  12      24.067  13.820  -6.309  1.00  0.00    -0.196 N 
ATOM     84  CA  PHE A  12      23.926  12.519  -6.957  1.00  0.00    +0.177 C 
ATOM     85  C   PHE A  12      22.504  12.000  -6.820  1.00  0.00    +0.262 C 
ATOM     86  O   PHE A  12      22.062  11.674  -5.718  1.00  0.00    -0.271 OA
ATOM     87  CB  PHE A  12      24.895  11.511  -6.364  1.00  0.00    +0.057 C 
ATOM     88  CG  PHE A  12      25.706  12.046  -5.221  1.00  0.00    -0.020 A 
ATOM     89  CD1 PHE A  12      26.755  12.923  -5.465  1.00  0.00    -0.004 A 
ATOM     90  CE1 PHE A  12      27.507  13.421  -4.407  1.00  0.00    -0.000 A 
ATOM     91  CD2 PHE A  12      25.407  11.664  -3.919  1.00  0.00    -0.004 A 
ATOM     92  CE2 PHE A  12      26.159  12.160  -2.859  1.00  0.00    -0.000 A 
ATOM     93  CZ  PHE A  12      27.208  13.039  -3.104  1.00  0.00    -0.000 A 
ATOM     94  N   ALA A  13      21.786  11.921  -7.936  1.00  0.00    -0.196 N 
ATOM     95  CA  ALA A  13      21.995  10.843  -8.898  1.00  0.00    +0.173 C 
ATOM     96  C   ALA A  13      22.775  11.333 -10.107  1.00  0.00    +0.262 C 
ATOM     97  O   ALA A  13      22.818  12.531 -10.379  1.00  0.00    -0.271 OA
ATOM     98  CB  ALA A  13      20.664  10.263  -9.354  1.00  0.00    +0.033 C 
ATOM     99  N   GLU A  14      23.392  10.406 -10.834  1.00  0.00    -0.196 N 
ATOM    100  CA  GLU A  14      24.460  10.757 -11.766  1.00  0.00    +0.173 C 
ATOM    101  C   GLU A  14      23.915  11.524 -12.960  1.00  0.00    +0.262 C 
ATOM    102  O   GLU A  14      22.775  11.313 -13.371  1.00  0.00    -0.271 OA
ATOM    103  CB  GLU A  14      25.186   9.513 -12.252  1.00  0.00    +0.043 C 
ATOM    104  CG  GLU A  14      26.169   9.778 -13.380  1.00  0.00    +0.116 C 
ATOM    105  CD  GLU A  14      27.609   9.460 -13.009  1.00  0.00    +0.365 C 
ATOM    106  OE1 GLU A  14      27.851   8.435 -12.338  1.00  0.00    -0.246 OA
ATOM    107  OE2 GLU A  14      28.502  10.246 -13.396  1.00  0.00    -0.246 OA
ATOM    108  N   SER A  15      24.729  12.417 -13.516  1.00  0.00    -0.194 N 
ATOM    109  CA  SER A  15      24.365  13.115 -14.745  1.00  0.00    +0.205 C 
ATOM    110  C   SER A  15      24.344  12.166 -15.934  1.00  0.00    +0.264 C 
ATOM    111  O   SER A  15      25.110  11.204 -15.976  1.00  0.00    -0.271 OA
ATOM    112  CB  SER A  15      25.332  14.253 -15.023  1.00  0.00    +0.213 C 
ATOM    113  OG  SER A  15      26.574  13.755 -15.489  1.00  0.00    -0.218 OA
ATOM    114  N   SER A  16      23.469  12.437 -16.898  1.00  0.00    -0.194 N 
ATOM    115  CA  SER A  16      23.080  11.425 -17.876  1.00  0.00    +0.205 C 
ATOM    116  C   SER A  16      24.165  11.224 -18.923  1.00  0.00    +0.264 C 
ATOM    117  O   SER A  16      24.063  10.337 -19.767  1.00  0.00    -0.271 OA
ATOM    118  CB  SER A  16      21.781  11.813 -18.562  1.00  0.00    +0.213 C 
ATOM    119  OG  SER A  16      21.980  12.915 -19.431  1.00  0.00    -0.218 OA
ATOM    120  N   ASP A  17      25.207  12.050 -18.867  1.00  0.00    -0.196 N 
ATOM    121  CA  ASP A  17      26.230  12.056 -19.909  1.00  0.00    +0.184 C 
ATOM    122  C   ASP A  17      27.338  11.065 -19.589  1.00  0.00    +0.262 C 
ATOM    123  O   ASP A  17      27.694  10.881 -18.426  1.00  0.00    -0.271 OA
ATOM    124  CB  ASP A  17      26.824  13.444 -20.079  1.00  0.00    +0.145 C 
ATOM    125  CG  ASP A  17      27.344  14.033 -18.777  1.00  0.00    +0.367 C 
ATOM    126  OD1 ASP A  17      28.391  14.717 -18.793  1.00  0.00    -0.246 OA
ATOM    127  OD2 ASP A  17      26.700  13.811 -17.729  1.00  0.00    -0.246 OA
ATOM    128  N   LEU A  18      27.883  10.428 -20.621  1.00  0.00    -0.196 N 
ATOM    129  CA  LEU A  18      27.497   9.062 -20.961  1.00  0.00    +0.173 C 
ATOM    130  C   LEU A  18      28.675   8.113 -20.815  1.00  0.00    +0.262 C 
ATOM    131  O   LEU A  18      29.785   8.424 -21.248  1.00  0.00    -0.271 OA
ATOM    132  CB  LEU A  18      26.960   8.991 -22.381  1.00  0.00    +0.031 C 
ATOM    133  CG  LEU A  18      25.476   8.643 -22.523  1.00  0.00    +0.002 C 
ATOM    134  CD1 LEU A  18      25.156   7.369 -21.749  1.00  0.00    +0.000 C 
ATOM    135  CD2 LEU A  18      25.175   8.142 -23.930  1.00  0.00    +0.000 C 
ATOM    136  N   VAL A  19      28.438   6.954 -20.207  1.00  0.00    -0.196 N 
ATOM    137  CA  VAL A  19      29.169   5.742 -20.567  1.00  0.00    +0.173 C 
ATOM    138  C   VAL A  19      28.617   5.177 -21.866  1.00  0.00    +0.262 C 
ATOM    139  O   VAL A  19      27.435   5.335 -22.164  1.00  0.00    -0.271 OA
ATOM    140  CB  VAL A  19      29.087   4.686 -19.478  1.00  0.00    +0.029 C 
ATOM    141  CG1 VAL A  19      29.548   5.255 -18.138  1.00  0.00    +0.002 C 
ATOM    142  CG2 VAL A  19      27.647   4.202 -19.313  1.00  0.00    +0.002 C 
ATOM    143  N   ARG A  20      29.473   4.515 -22.639  1.00  0.00    -0.196 N 
ATOM    144  CA  ARG A  20      29.014   3.532 -23.615  1.00  0.00    +0.173 C 
ATOM    145  C   ARG A  20      28.330   2.361 -22.927  1.00  0.00    +0.262 C 
ATOM    146  O   ARG A  20      28.965   1.619 -22.179  1.00  0.00    -0.271 OA
ATOM    147  CB  ARG A  20      30.172   3.021 -24.456  1.00  0.00    +0.033 C 
ATOM    148  CG  ARG A  20      29.831   1.794 -25.288  1.00  0.00    +0.029 C 
ATOM    149  CD  ARG A  20      29.066   2.162 -26.548  1.00  0.00    +0.129 C 
ATOM    150  NE  ARG A  20      28.890   1.010 -27.427  1.00  0.00    -0.234 NA
ATOM    151  CZ  ARG A  20      29.533  -0.147 -27.302  1.00  0.00    +0.284 C 
ATOM    152  NH1 ARG A  20      30.468  -0.305 -26.369  1.00  0.00    -0.104 N 
ATOM    153  NH2 ARG A  20      29.237  -1.156 -28.117  1.00  0.00    -0.104 N 
ATOM    154  N   ARG A  21      27.035   2.195 -23.179  1.00  0.00    -0.194 N 
ATOM    155  CA  ARG A  21      26.323   0.999 -22.736  1.00  0.00    +0.198 C 
ATOM    156  C   ARG A  21      26.081   0.049 -23.896  1.00  0.00    +0.384 C 
ATOM    157  O   ARG A  21      26.399  -1.136 -23.810  1.00  0.00    -0.244 OA
ATOM    158  CB  ARG A  21      24.993   1.367 -22.096  1.00  0.00    +0.035 C 
ATOM    159  CG  ARG A  21      25.128   2.010 -20.726  1.00  0.00    +0.029 C 
ATOM    160  CD  ARG A  21      24.244   3.240 -20.590  1.00  0.00    +0.129 C 
ATOM    161  NE  ARG A  21      22.974   2.921 -19.946  1.00  0.00    -0.234 NA
ATOM    162  CZ  ARG A  21      21.934   3.748 -19.871  1.00  0.00    +0.284 C 
ATOM    163  NH1 ARG A  21      21.993   4.963 -20.408  1.00  0.00    -0.104 N 
ATOM    164  NH2 ARG A  21      20.823   3.353 -19.255  1.00  0.00    -0.104 N 
ATOM    165  OXT ARG A  21      25.564   0.452 -24.938  1.00  0.00    -0.244 OA
ATOM    166  H   MET A   1      20.089   2.837  -4.660  1.00  0.00    +0.000 HD
ATOM    167  H   MET A   1      20.603   4.413  -4.811  1.00  0.00    +0.000 HD
ATOM    168  H   LYS A   2      22.052   3.697  -0.714  1.00  0.00    +0.000 HD
ATOM    169  H   LYS A   2      22.260   7.386   5.562  1.00  0.00    +0.000 HD
ATOM    170  H   LEU A   3      21.970   8.405  -0.175  1.00  0.00    +0.000 HD
ATOM    171  H   ALA A   4      26.197   7.541   1.436  1.00  0.00    +0.000 HD
ATOM    172  H   VAL A   5      26.187  10.298   1.711  1.00  0.00    +0.000 HD
ATOM    173  H   PHE A   6      27.023  13.475   4.357  1.00  0.00    +0.000 HD
ATOM    174  H   ALA A   7      28.921  15.787   0.780  1.00  0.00    +0.000 HD
ATOM    175  H   LEU A   8      27.453  18.901   3.143  1.00  0.00    +0.000 HD
ATOM    176  H   LEU A   9      27.535  19.237  -0.104  1.00  0.00    +0.000 HD
ATOM    177  H   VAL A  10      24.491  16.167  -1.138  1.00  0.00    +0.000 HD
ATOM    178  H   CYS A  11      26.120  16.182  -5.279  1.00  0.00    +0.000 HD
ATOM    179  H   CYS A  11      27.277  17.863  -6.718  1.00  0.00    +0.000 HD
ATOM    180  H   PHE A  12      24.455  13.868  -5.405  1.00  0.00    +0.000 HD
ATOM    181  H   ALA A  13      21.101  12.604  -8.118  1.00  0.00    +0.000 HD
ATOM    182  H   GLU A  14      23.124   9.463 -10.741  1.00  0.00    +0.000 HD
ATOM    183  H   GLU A  14      28.274  11.004 -13.898  1.00  0.00    +0.000 HD
ATOM    184  H   SER A  15      25.595  12.612 -13.090  1.00  0.00    +0.000 HD
ATOM    185  H   SER A  15      26.436  13.264 -16.315  1.00  0.00    +0.000 HD
ATOM    186  H   SER A  16      23.076  13.338 -16.952  1.00  0.00    +0.000 HD
ATOM    187  H   SER A  16      22.295  13.676 -18.919  1.00  0.00    +0.000 HD
ATOM    188  H   ASP A  17      25.289  12.671 -18.108  1.00  0.00    +0.000 HD
ATOM    189  H   ASP A  17      25.920  13.293 -17.760  1.00  0.00    +0.000 HD
ATOM    190  H   LEU A  18      28.560  10.887 -21.167  1.00  0.00    +0.000 HD
ATOM    191  H   VAL A  19      27.755   6.913 -19.500  1.00  0.00    +0.000 HD
ATOM    192  H   ARG A  20      30.437   4.693 -22.552  1.00  0.00    +0.000 HD
ATOM    193  H   ARG A  20      30.939  -1.166 -26.285  1.00  0.00    +0.000 HD
ATOM    194  H   ARG A  20      30.691   0.438 -25.764  1.00  0.00    +0.000 HD
ATOM    195  H   ARG A  20      29.710  -2.015 -28.029  1.00  0.00    +0.000 HD
ATOM    196  H   ARG A  20      28.545  -1.044 -28.808  1.00  0.00    +0.000 HD
ATOM    197  H   ARG A  21      26.547   2.892 -23.673  1.00  0.00    +0.000 HD
ATOM    198  H   ARG A  21      22.812   5.261 -20.865  1.00  0.00    +0.000 HD
ATOM    199  H   ARG A  21      21.216   5.566 -20.348  1.00  0.00    +0.000 HD
ATOM    200  H   ARG A  21      20.774   2.454 -18.855  1.00  0.00    +0.000 HD
ATOM    201  H   ARG A  21      20.050   3.959 -19.198  1.00  0.00    +0.000 HD
ATOM    202  H   ARG A  21      25.315   1.351 -25.020  1.00  0.00    +0.000 HD
ENDROOT
TORSDOF 0
