REMARK  Name = /var/folders/yp/yjbh3p597675h2qddgqr02y00000gn/T/tmpwqgkypw9.pdb
REMARK     285 UNITARY VALUES FOR THE UNIT CELL AUTOMATICALLY SET
REMARK     285 BY MDANALYSIS PDBWRITER BECAUSE UNIT CELL INFORMATION
REMARK     285 WAS MISSING.
REMARK     285 PROTEIN DATA BANK CONVENTIONS REQUIRE THAT
REMARK     285 CRYST1 RECORD IS INCLUDED, BUT THE VALUES ON
REMARK     285 THIS RECORD ARE MEANINGLESS.
REMARK     285 UNITARY VALUES FOR THE UNIT CELL AUTOMATICALLY SET
REMARK     285 BY MDANALYSIS PDBWRITER BECAUSE UNIT CELL INFORMATION
REMARK     285 WAS MISSING.
REMARK     285 PROTEIN DATA BANK CONVENTIONS REQUIRE THAT
REMARK     285 CRYST1 RECORD IS INCLUDED, BUT THE VALUES ON
REMARK     285 THIS RECORD ARE MEANINGLESS.
REMARK                            x       y       z     vdW  Elec       q    Type
REMARK                         _______ _______ _______ _____ _____    ______ ____
REMARK  Name = /var/folders/yp/yjbh3p597675h2qddgqr02y00000gn/T/tmpwqgkypw9.pdb
REMARK     285 UNITARY VALUES FOR THE UNIT CELL AUTOMATICALLY SET
REMARK     285 BY MDANALYSIS PDBWRITER BECAUSE UNIT CELL INFORMATION
REMARK     285 WAS MISSING.
REMARK     285 PROTEIN DATA BANK CONVENTIONS REQUIRE THAT
REMARK     285 CRYST1 RECORD IS INCLUDED, BUT THE VALUES ON
REMARK     285 THIS RECORD ARE MEANINGLESS.
REMARK     285 UNITARY VALUES FOR THE UNIT CELL AUTOMATICALLY SET
REMARK     285 BY MDANALYSIS PDBWRITER BECAUSE UNIT CELL INFORMATION
REMARK     285 WAS MISSING.
REMARK     285 PROTEIN DATA BANK CONVENTIONS REQUIRE THAT
REMARK     285 CRYST1 RECORD IS INCLUDED, BUT THE VALUES ON
REMARK     285 THIS RECORD ARE MEANINGLESS.
REMARK                            x       y       z     vdW  Elec       q    Type
REMARK                         _______ _______ _______ _____ _____    ______ ____
ROOT
ATOM      1  N   MET A   1      -3.905   8.052 -17.432  1.00  0.00    -0.123 NA
ATOM      2  CA  MET A   1      -4.556   9.332 -17.692  1.00  0.00    +0.174 C 
ATOM      3  C   MET A   1      -4.518  10.222 -16.459  1.00  0.00    +0.241 C 
ATOM      4  O   MET A   1      -4.620   9.736 -15.335  1.00  0.00    -0.383 OA
ATOM      5  CB  MET A   1      -6.000   9.128 -18.123  1.00  0.00    +0.060 C 
ATOM      6  CG  MET A   1      -6.618  10.350 -18.782  1.00  0.00    +0.064 C 
ATOM      7  SD  MET A   1      -5.434  11.277 -19.788  1.00  0.00    -0.139 S 
ATOM      8  CE  MET A   1      -6.546  12.170 -20.868  1.00  0.00    +0.069 C 
ATOM      9  N   LYS A   2      -4.369  11.527 -16.671  1.00  0.00    -0.199 NA
ATOM     10  CA  LYS A   2      -4.603  12.499 -15.608  1.00  0.00    +0.278 C 
ATOM     11  C   LYS A   2      -6.048  12.973 -15.609  1.00  0.00    +0.423 C 
ATOM     12  O   LYS A   2      -6.677  13.056 -16.662  1.00  0.00    -0.224 OA
ATOM     13  CB  LYS A   2      -3.678  13.696 -15.756  1.00  0.00    +0.071 C 
ATOM     14  CG  LYS A   2      -2.374  13.565 -14.986  1.00  0.00    +0.012 C 
ATOM     15  CD  LYS A   2      -1.174  13.489 -15.915  1.00  0.00    +0.049 C 
ATOM     16  CE  LYS A   2      -0.255  12.423 -15.523  1.00  0.00    +0.096 C 
ATOM     17  NZ  LYS A   2       0.680  12.535 -14.585  1.00  0.00    -0.151 NA
ATOM     18  N   LEU A   3      -6.574  13.283 -14.428  1.00  0.00    -0.161 N 
ATOM     19  CA  LEU A   3      -7.442  14.446 -14.263  1.00  0.00    +0.176 C 
ATOM     20  C   LEU A   3      -6.687  15.599 -13.625  1.00  0.00    +0.261 C 
ATOM     21  O   LEU A   3      -7.286  16.453 -12.972  1.00  0.00    -0.271 OA
ATOM     22  CB  LEU A   3      -8.652  14.098 -13.411  1.00  0.00    +0.031 C 
ATOM     23  CG  LEU A   3      -8.370  13.305 -12.133  1.00  0.00    +0.002 C 
ATOM     24  CD1 LEU A   3      -9.658  12.687 -11.600  1.00  0.00    +0.000 C 
ATOM     25  CD2 LEU A   3      -8.068  14.247 -10.974  1.00  0.00    +0.000 C 
ATOM     26  N   ALA A   4      -5.371  15.626 -13.810  1.00  0.00    -0.204 N 
ATOM     27  CA  ALA A   4      -4.756  15.016 -14.986  1.00  0.00    +0.115 C 
ATOM     28  O   ALA A   4      -5.225  12.838 -15.855  1.00  0.00    -0.414 OA
ATOM     29  CB  ALA A   4      -3.312  15.467 -15.136  1.00  0.00    +0.025 C 
ATOM     30  N   VAL A   5      -4.389  12.945 -13.772  1.00  0.00    -0.129 NA
ATOM     31  CA  VAL A   5      -3.897  11.572 -13.734  1.00  0.00    +0.138 C 
ATOM     32  C   VAL A   5      -5.070  10.606 -13.710  1.00  0.00    +0.228 C 
ATOM     33  O   VAL A   5      -6.141  10.936 -13.206  1.00  0.00    -0.337 OA
ATOM     34  CB  VAL A   5      -3.009  11.322 -12.526  1.00  0.00    +0.022 C 
ATOM     35  CG1 VAL A   5      -1.536  11.341 -12.924  1.00  0.00    +0.002 C 
ATOM     36  CG2 VAL A   5      -3.226  12.405 -11.471  1.00  0.00    +0.002 C 
ATOM     37  N   PHE A   6      -4.869   9.411 -14.257  1.00  0.00    -0.084 NA
ATOM     38  CA  PHE A   6      -5.567   8.225 -13.771  1.00  0.00    +0.180 C 
ATOM     39  C   PHE A   6      -5.049   7.814 -12.403  1.00  0.00    +0.260 C 
ATOM     40  O   PHE A   6      -3.841   7.697 -12.202  1.00  0.00    -0.272 OA
ATOM     41  CB  PHE A   6      -5.407   7.065 -14.742  1.00  0.00    +0.055 C 
ATOM     42  CG  PHE A   6      -6.170   7.237 -16.022  1.00  0.00    -0.021 A 
ATOM     43  CD1 PHE A   6      -5.683   8.080 -17.014  1.00  0.00    -0.008 A 
ATOM     44  CE1 PHE A   6      -6.390   8.238 -18.200  1.00  0.00    -0.020 A 
ATOM     45  CD2 PHE A   6      -7.365   6.552 -16.217  1.00  0.00    -0.004 A 
ATOM     46  CE2 PHE A   6      -8.071   6.711 -17.403  1.00  0.00    -0.001 A 
ATOM     47  CZ  PHE A   6      -7.584   7.554 -18.394  1.00  0.00    -0.004 A 
ATOM     48  N   ALA A   7      -5.960   7.598 -11.460  1.00  0.00    -0.197 N 
ATOM     49  CA  ALA A   7      -6.530   6.271 -11.243  1.00  0.00    +0.173 C 
ATOM     50  C   ALA A   7      -7.435   5.869 -12.396  1.00  0.00    +0.262 C 
ATOM     51  O   ALA A   7      -7.534   4.688 -12.727  1.00  0.00    -0.271 OA
ATOM     52  CB  ALA A   7      -7.316   6.228  -9.942  1.00  0.00    +0.033 C 
ATOM     53  N   LEU A   8      -8.091   6.848 -13.009  1.00  0.00    -0.196 N 
ATOM     54  CA  LEU A   8      -8.900   7.806 -12.259  1.00  0.00    +0.173 C 
ATOM     55  C   LEU A   8     -10.247   7.206 -11.888  1.00  0.00    +0.262 C 
ATOM     56  O   LEU A   8     -10.657   7.266 -10.729  1.00  0.00    -0.271 OA
ATOM     57  CB  LEU A   8      -9.115   9.077 -13.067  1.00  0.00    +0.034 C 
ATOM     58  CG  LEU A   8      -8.011  10.131 -12.970  1.00  0.00    +0.032 C 
ATOM     59  CD1 LEU A   8      -8.608  11.530 -13.060  1.00  0.00    +0.003 C 
ATOM     60  CD2 LEU A   8      -7.178  10.152 -14.248  1.00  0.00    +0.144 C 
ATOM     61  N   LEU A   9     -10.933   6.629 -12.869  1.00  0.00    -0.196 N 
ATOM     62  CA  LEU A   9     -12.392   6.674 -12.903  1.00  0.00    +0.173 C 
ATOM     63  C   LEU A   9     -12.987   5.759 -11.844  1.00  0.00    +0.262 C 
ATOM     64  O   LEU A   9     -12.624   4.587 -11.755  1.00  0.00    -0.271 OA
ATOM     65  CB  LEU A   9     -12.911   6.267 -14.274  1.00  0.00    +0.031 C 
ATOM     66  CG  LEU A   9     -12.870   7.348 -15.357  1.00  0.00    +0.002 C 
ATOM     67  CD1 LEU A   9     -13.954   7.093 -16.397  1.00  0.00    +0.000 C 
ATOM     68  CD2 LEU A   9     -11.644   7.167 -16.247  1.00  0.00    +0.000 C 
ATOM     69  N   VAL A  10     -13.902   6.293 -11.041  1.00  0.00    -0.196 N 
ATOM     70  CA  VAL A  10     -15.170   5.619 -10.779  1.00  0.00    +0.173 C 
ATOM     71  C   VAL A  10     -16.313   6.420 -11.386  1.00  0.00    +0.262 C 
ATOM     72  O   VAL A  10     -16.597   7.532 -10.947  1.00  0.00    -0.271 OA
ATOM     73  CB  VAL A  10     -15.416   5.432  -9.291  1.00  0.00    +0.029 C 
ATOM     74  CG1 VAL A  10     -16.463   4.349  -9.049  1.00  0.00    +0.002 C 
ATOM     75  CG2 VAL A  10     -14.128   5.009  -8.588  1.00  0.00    +0.002 C 
ATOM     76  N   CYS A  11     -16.967   5.852 -12.395  1.00  0.00    -0.195 N 
ATOM     77  CA  CYS A  11     -18.215   6.414 -12.902  1.00  0.00    +0.184 C 
ATOM     78  C   CYS A  11     -19.384   6.040 -12.004  1.00  0.00    +0.263 C 
ATOM     79  O   CYS A  11     -19.960   6.899 -11.338  1.00  0.00    -0.271 OA
ATOM     80  CB  CYS A  11     -18.487   5.929 -14.318  1.00  0.00    +0.100 C 
ATOM     81  SG  CYS A  11     -17.459   6.726 -15.573  1.00  0.00    -0.080 S 
ATOM     82  N   PHE A  12     -19.736   4.758 -11.986  1.00  0.00    -0.196 N 
ATOM     83  CA  PHE A  12     -20.436   4.145 -13.111  1.00  0.00    +0.177 C 
ATOM     84  C   PHE A  12     -21.845   4.700 -13.234  1.00  0.00    +0.262 C 
ATOM     85  O   PHE A  12     -22.571   4.789 -12.245  1.00  0.00    -0.271 OA
ATOM     86  CB  PHE A  12     -20.497   2.634 -12.953  1.00  0.00    +0.057 C 
ATOM     87  CG  PHE A  12     -19.182   1.948 -13.176  1.00  0.00    -0.020 A 
ATOM     88  CD1 PHE A  12     -18.505   2.118 -14.378  1.00  0.00    -0.004 A 
ATOM     89  CE1 PHE A  12     -17.286   1.482 -14.585  1.00  0.00    -0.000 A 
ATOM     90  CD2 PHE A  12     -18.640   1.145 -12.181  1.00  0.00    -0.004 A 
ATOM     91  CE2 PHE A  12     -17.421   0.509 -12.387  1.00  0.00    -0.000 A 
ATOM     92  CZ  PHE A  12     -16.745   0.677 -13.589  1.00  0.00    -0.000 A 
ATOM     93  N   ALA A  13     -22.235   5.076 -14.449  1.00  0.00    -0.196 N 
ATOM     94  CA  ALA A  13     -23.645   5.079 -14.830  1.00  0.00    +0.173 C 
ATOM     95  C   ALA A  13     -24.248   3.689 -14.702  1.00  0.00    +0.262 C 
ATOM     96  O   ALA A  13     -23.627   2.700 -15.090  1.00  0.00    -0.271 OA
ATOM     97  CB  ALA A  13     -23.818   5.578 -16.255  1.00  0.00    +0.033 C 
ATOM     98  N   GLU A  14     -25.459   3.612 -14.158  1.00  0.00    -0.196 N 
ATOM     99  CA  GLU A  14     -26.389   2.548 -14.520  1.00  0.00    +0.173 C 
ATOM    100  C   GLU A  14     -26.783   2.637 -15.985  1.00  0.00    +0.262 C 
ATOM    101  O   GLU A  14     -26.937   3.732 -16.524  1.00  0.00    -0.271 OA
ATOM    102  CB  GLU A  14     -27.637   2.600 -13.655  1.00  0.00    +0.043 C 
ATOM    103  CG  GLU A  14     -28.886   3.034 -14.404  1.00  0.00    +0.116 C 
ATOM    104  CD  GLU A  14     -30.118   3.125 -13.519  1.00  0.00    +0.365 C 
ATOM    105  OE1 GLU A  14     -30.035   3.723 -12.424  1.00  0.00    -0.246 OA
ATOM    106  OE2 GLU A  14     -31.175   2.595 -13.924  1.00  0.00    -0.246 OA
ATOM    107  N   SER A  15     -26.946   1.485 -16.632  1.00  0.00    -0.194 N 
ATOM    108  CA  SER A  15     -27.966   1.330 -17.662  1.00  0.00    +0.205 C 
ATOM    109  C   SER A  15     -29.340   1.104 -17.050  1.00  0.00    +0.264 C 
ATOM    110  O   SER A  15     -29.449   0.620 -15.925  1.00  0.00    -0.271 OA
ATOM    111  CB  SER A  15     -27.627   0.170 -18.584  1.00  0.00    +0.213 C 
ATOM    112  OG  SER A  15     -27.774  -1.068 -17.910  1.00  0.00    -0.218 OA
ATOM    113  N   SER A  16     -30.387   1.456 -17.790  1.00  0.00    -0.194 N 
ATOM    114  CA  SER A  16     -31.451   0.506 -18.100  1.00  0.00    +0.205 C 
ATOM    115  C   SER A  16     -30.948  -0.611 -19.002  1.00  0.00    +0.264 C 
ATOM    116  O   SER A  16     -30.052  -0.399 -19.817  1.00  0.00    -0.271 OA
ATOM    117  CB  SER A  16     -32.621   1.210 -18.767  1.00  0.00    +0.213 C 
ATOM    118  OG  SER A  16     -32.987   2.371 -18.045  1.00  0.00    -0.218 OA
ATOM    119  N   ASP A  17     -31.525  -1.800 -18.857  1.00  0.00    -0.196 N 
ATOM    120  CA  ASP A  17     -30.801  -3.036 -19.140  1.00  0.00    +0.184 C 
ATOM    121  C   ASP A  17     -30.530  -3.181 -20.629  1.00  0.00    +0.262 C 
ATOM    122  O   ASP A  17     -31.338  -2.754 -21.453  1.00  0.00    -0.271 OA
ATOM    123  CB  ASP A  17     -31.576  -4.245 -18.645  1.00  0.00    +0.145 C 
ATOM    124  CG  ASP A  17     -31.646  -4.329 -17.128  1.00  0.00    +0.367 C 
ATOM    125  OD1 ASP A  17     -30.648  -3.995 -16.453  1.00  0.00    -0.246 OA
ATOM    126  OD2 ASP A  17     -32.708  -4.732 -16.607  1.00  0.00    -0.246 OA
ATOM    127  N   LEU A  18     -29.396  -3.781 -20.974  1.00  0.00    -0.196 N 
ATOM    128  CA  LEU A  18     -29.271  -4.504 -22.237  1.00  0.00    +0.173 C 
ATOM    129  C   LEU A  18     -29.199  -6.004 -21.997  1.00  0.00    +0.262 C 
ATOM    130  O   LEU A  18     -28.418  -6.468 -21.169  1.00  0.00    -0.271 OA
ATOM    131  CB  LEU A  18     -28.034  -4.052 -22.996  1.00  0.00    +0.031 C 
ATOM    132  CG  LEU A  18     -27.955  -4.472 -24.465  1.00  0.00    +0.002 C 
ATOM    133  CD1 LEU A  18     -26.501  -4.570 -24.909  1.00  0.00    +0.000 C 
ATOM    134  CD2 LEU A  18     -28.399  -3.329 -25.373  1.00  0.00    +0.000 C 
ATOM    135  N   VAL A  19     -30.016  -6.763 -22.722  1.00  0.00    -0.196 N 
ATOM    136  CA  VAL A  19     -29.653  -8.126 -23.099  1.00  0.00    +0.173 C 
ATOM    137  C   VAL A  19     -29.449  -8.206 -24.603  1.00  0.00    +0.262 C 
ATOM    138  O   VAL A  19     -30.210  -7.620 -25.371  1.00  0.00    -0.271 OA
ATOM    139  CB  VAL A  19     -30.712  -9.132 -22.677  1.00  0.00    +0.029 C 
ATOM    140  CG1 VAL A  19     -30.753  -9.265 -21.156  1.00  0.00    +0.002 C 
ATOM    141  CG2 VAL A  19     -32.094  -8.680 -23.148  1.00  0.00    +0.002 C 
ATOM    142  N   ARG A  20     -28.418  -8.934 -25.025  1.00  0.00    -0.196 N 
ATOM    143  CA  ARG A  20     -27.143  -8.929 -24.314  1.00  0.00    +0.173 C 
ATOM    144  C   ARG A  20     -26.290  -7.743 -24.733  1.00  0.00    +0.262 C 
ATOM    145  O   ARG A  20     -26.560  -6.610 -24.341  1.00  0.00    -0.271 OA
ATOM    146  CB  ARG A  20     -26.377 -10.218 -24.564  1.00  0.00    +0.033 C 
ATOM    147  CG  ARG A  20     -26.090 -10.487 -26.032  1.00  0.00    +0.029 C 
ATOM    148  CD  ARG A  20     -25.523 -11.881 -26.251  1.00  0.00    +0.129 C 
ATOM    149  NE  ARG A  20     -24.298 -11.846 -27.043  1.00  0.00    -0.234 NA
ATOM    150  CZ  ARG A  20     -23.659 -12.920 -27.502  1.00  0.00    +0.284 C 
ATOM    151  NH1 ARG A  20     -22.335 -12.924 -27.613  1.00  0.00    -0.104 N 
ATOM    152  NH2 ARG A  20     -24.356 -13.998 -27.853  1.00  0.00    -0.104 N 
ATOM    153  N   ARG A  21     -25.259  -8.003 -25.532  1.00  0.00    -0.194 N 
ATOM    154  CA  ARG A  21     -23.970  -7.344 -25.346  1.00  0.00    +0.198 C 
ATOM    155  C   ARG A  21     -23.695  -6.356 -26.470  1.00  0.00    +0.384 C 
ATOM    156  O   ARG A  21     -23.670  -6.732 -27.640  1.00  0.00    -0.244 OA
ATOM    157  CB  ARG A  21     -22.844  -8.364 -25.283  1.00  0.00    +0.035 C 
ATOM    158  CG  ARG A  21     -22.795  -9.145 -23.980  1.00  0.00    +0.029 C 
ATOM    159  CD  ARG A  21     -21.380  -9.252 -23.439  1.00  0.00    +0.129 C 
ATOM    160  NE  ARG A  21     -21.316  -8.902 -22.023  1.00  0.00    -0.234 NA
ATOM    161  CZ  ARG A  21     -20.191  -8.716 -21.336  1.00  0.00    +0.284 C 
ATOM    162  NH1 ARG A  21     -19.018  -8.657 -21.962  1.00  0.00    -0.104 N 
ATOM    163  NH2 ARG A  21     -20.241  -8.590 -20.014  1.00  0.00    -0.104 N 
ATOM    164  OXT ARG A  21     -23.496  -5.169 -26.222  1.00  0.00    -0.244 OA
ATOM    165  H   MET A   1      -2.940   8.214 -17.144  1.00  0.00    +0.000 HD
ATOM    166  H   MET A   1      -3.916   7.486 -18.280  1.00  0.00    +0.000 HD
ATOM    167  H   LYS A   2       0.790  13.383 -14.098  1.00  0.00    +0.000 HD
ATOM    168  H   LEU A   3      -6.375  12.717 -13.648  1.00  0.00    +0.000 HD
ATOM    169  H   ALA A   4      -4.799  16.066 -13.142  1.00  0.00    +0.000 HD
ATOM    170  H   VAL A   5      -3.599  13.590 -13.788  1.00  0.00    +0.000 HD
ATOM    171  H   VAL A   5      -4.958  13.125 -12.944  1.00  0.00    +0.000 HD
ATOM    172  H   ALA A   7      -6.258   8.348 -10.896  1.00  0.00    +0.000 HD
ATOM    173  H   LEU A   8      -8.032   6.930 -13.989  1.00  0.00    +0.000 HD
ATOM    174  H   LEU A   9     -10.448   6.162 -13.588  1.00  0.00    +0.000 HD
ATOM    175  H   VAL A  10     -13.722   7.162 -10.615  1.00  0.00    +0.000 HD
ATOM    176  H   CYS A  11     -16.603   5.036 -12.807  1.00  0.00    +0.000 HD
ATOM    177  H   CYS A  11     -17.716   8.061 -15.589  1.00  0.00    +0.000 HD
ATOM    178  H   PHE A  12     -19.519   4.210 -11.197  1.00  0.00    +0.000 HD
ATOM    179  H   ALA A  13     -21.558   5.358 -15.106  1.00  0.00    +0.000 HD
ATOM    180  H   GLU A  14     -25.734   4.288 -13.497  1.00  0.00    +0.000 HD
ATOM    181  H   GLU A  14     -31.191   2.156 -14.752  1.00  0.00    +0.000 HD
ATOM    182  H   SER A  15     -26.365   0.721 -16.410  1.00  0.00    +0.000 HD
ATOM    183  H   SER A  15     -27.172  -1.096 -17.150  1.00  0.00    +0.000 HD
ATOM    184  H   SER A  16     -30.446   2.376 -18.136  1.00  0.00    +0.000 HD
ATOM    185  H   SER A  16     -33.254   2.122 -17.145  1.00  0.00    +0.000 HD
ATOM    186  H   ASP A  17     -32.460  -1.848 -18.553  1.00  0.00    +0.000 HD
ATOM    187  H   ASP A  17     -33.435  -4.973 -17.149  1.00  0.00    +0.000 HD
ATOM    188  H   LEU A  18     -28.624  -3.738 -20.365  1.00  0.00    +0.000 HD
ATOM    189  H   VAL A  19     -30.883  -6.398 -23.011  1.00  0.00    +0.000 HD
ATOM    190  H   ARG A  20     -28.517  -9.487 -25.834  1.00  0.00    +0.000 HD
ATOM    191  H   ARG A  20     -21.816 -12.128 -27.354  1.00  0.00    +0.000 HD
ATOM    192  H   ARG A  20     -21.871 -13.723 -27.954  1.00  0.00    +0.000 HD
ATOM    193  H   ARG A  20     -23.890 -14.795 -28.193  1.00  0.00    +0.000 HD
ATOM    194  H   ARG A  20     -25.337 -13.998 -27.772  1.00  0.00    +0.000 HD
ATOM    195  H   ARG A  21     -25.367  -8.653 -26.264  1.00  0.00    +0.000 HD
ATOM    196  H   ARG A  21     -23.820  -7.633 -27.846  1.00  0.00    +0.000 HD
ATOM    197  H   ARG A  21     -18.192  -8.518 -21.445  1.00  0.00    +0.000 HD
ATOM    198  H   ARG A  21     -18.977  -8.751 -22.940  1.00  0.00    +0.000 HD
ATOM    199  H   ARG A  21     -19.412  -8.453 -19.501  1.00  0.00    +0.000 HD
ATOM    200  H   ARG A  21     -21.107  -8.635 -19.548  1.00  0.00    +0.000 HD
ATOM      1  C   ALA A   4      -4.809  13.500 -14.907  1.00  0.00    +0.000 C 
ENDROOT
TORSDOF 0
