REMARK  Name = /var/folders/yp/yjbh3p597675h2qddgqr02y00000gn/T/tmp84n0a2ve.pdb
REMARK     285 UNITARY VALUES FOR THE UNIT CELL AUTOMATICALLY SET
REMARK     285 BY MDANALYSIS PDBWRITER BECAUSE UNIT CELL INFORMATION
REMARK     285 WAS MISSING.
REMARK     285 PROTEIN DATA BANK CONVENTIONS REQUIRE THAT
REMARK     285 CRYST1 RECORD IS INCLUDED, BUT THE VALUES ON
REMARK     285 THIS RECORD ARE MEANINGLESS.
REMARK     285 UNITARY VALUES FOR THE UNIT CELL AUTOMATICALLY SET
REMARK     285 BY MDANALYSIS PDBWRITER BECAUSE UNIT CELL INFORMATION
REMARK     285 WAS MISSING.
REMARK     285 PROTEIN DATA BANK CONVENTIONS REQUIRE THAT
REMARK     285 CRYST1 RECORD IS INCLUDED, BUT THE VALUES ON
REMARK     285 THIS RECORD ARE MEANINGLESS.
REMARK                            x       y       z     vdW  Elec       q    Type
REMARK                         _______ _______ _______ _____ _____    ______ ____
ROOT
ATOM      1  N   MET A   1      -5.865 -26.582  28.898  1.00  0.00    -0.123 NA
ATOM      2  CA  MET A   1      -4.631 -27.241  28.480  1.00  0.00    +0.170 C 
ATOM      3  C   MET A   1      -3.965 -27.943  29.653  1.00  0.00    +0.259 C 
ATOM      4  O   MET A   1      -4.080 -27.497  30.794  1.00  0.00    -0.272 OA
ATOM      5  CB  MET A   1      -3.661 -26.241  27.872  1.00  0.00    +0.040 C 
ATOM      6  CG  MET A   1      -2.388 -26.875  27.333  1.00  0.00    +0.060 C 
ATOM      7  SD  MET A   1      -1.779 -26.058  25.838  1.00  0.00    -0.139 S 
ATOM      8  CE  MET A   1      -3.126 -24.927  25.510  1.00  0.00    +0.069 C 
ATOM      9  N   LYS A   2      -3.268 -29.040  29.374  1.00  0.00    -0.197 N 
ATOM     10  CA  LYS A   2      -2.483 -29.724  30.398  1.00  0.00    +0.173 C 
ATOM     11  C   LYS A   2      -1.251 -28.914  30.772  1.00  0.00    +0.262 C 
ATOM     12  O   LYS A   2      -0.626 -28.297  29.912  1.00  0.00    -0.271 OA
ATOM     13  CB  LYS A   2      -2.059 -31.103  29.925  1.00  0.00    +0.031 C 
ATOM     14  CG  LYS A   2      -1.353 -31.929  30.988  1.00  0.00    +0.009 C 
ATOM     15  CD  LYS A   2      -0.982 -33.310  30.476  1.00  0.00    +0.049 C 
ATOM     16  CE  LYS A   2      -1.269 -33.452  29.052  1.00  0.00    +0.096 C 
ATOM     17  NZ  LYS A   2      -1.728 -34.561  28.477  1.00  0.00    -0.151 NA
ATOM     18  N   LEU A   3      -0.901 -28.919  32.055  1.00  0.00    -0.196 N 
ATOM     19  CA  LEU A   3       0.462 -28.605  32.472  1.00  0.00    +0.173 C 
ATOM     20  C   LEU A   3       1.386 -29.785  32.228  1.00  0.00    +0.262 C 
ATOM     21  O   LEU A   3       0.968 -30.938  32.329  1.00  0.00    -0.271 OA
ATOM     22  CB  LEU A   3       0.500 -28.226  33.945  1.00  0.00    +0.031 C 
ATOM     23  CG  LEU A   3       0.175 -26.767  34.273  1.00  0.00    +0.002 C 
ATOM     24  CD1 LEU A   3      -0.555 -26.677  35.608  1.00  0.00    +0.000 C 
ATOM     25  CD2 LEU A   3      -0.936 -26.248  33.365  1.00  0.00    +0.000 C 
ATOM     26  N   ALA A   4       2.645 -29.502  31.908  1.00  0.00    -0.196 N 
ATOM     27  CA  ALA A   4       3.752 -30.345  32.349  1.00  0.00    +0.173 C 
ATOM     28  C   ALA A   4       4.019 -30.164  33.834  1.00  0.00    +0.262 C 
ATOM     29  O   ALA A   4       3.726 -29.111  34.398  1.00  0.00    -0.271 OA
ATOM     30  CB  ALA A   4       5.016 -30.032  31.564  1.00  0.00    +0.033 C 
ATOM     31  N   VAL A   5       4.574 -31.191  34.470  1.00  0.00    -0.196 N 
ATOM     32  CA  VAL A   5       5.739 -31.012  35.333  1.00  0.00    +0.173 C 
ATOM     33  C   VAL A   5       6.981 -30.803  34.484  1.00  0.00    +0.262 C 
ATOM     34  O   VAL A   5       7.083 -31.341  33.381  1.00  0.00    -0.271 OA
ATOM     35  CB  VAL A   5       5.949 -32.199  36.257  1.00  0.00    +0.029 C 
ATOM     36  CG1 VAL A   5       6.835 -31.815  37.438  1.00  0.00    +0.002 C 
ATOM     37  CG2 VAL A   5       4.611 -32.688  36.811  1.00  0.00    +0.002 C 
ATOM     38  N   PHE A   6       7.930 -30.025  34.995  1.00  0.00    -0.196 N 
ATOM     39  CA  PHE A   6       9.330 -30.181  34.612  1.00  0.00    +0.177 C 
ATOM     40  C   PHE A   6       9.951 -31.379  35.310  1.00  0.00    +0.262 C 
ATOM     41  O   PHE A   6       9.814 -31.536  36.522  1.00  0.00    -0.271 OA
ATOM     42  CB  PHE A   6      10.127 -28.929  34.946  1.00  0.00    +0.057 C 
ATOM     43  CG  PHE A   6      10.519 -28.120  33.745  1.00  0.00    -0.020 A 
ATOM     44  CD1 PHE A   6       9.540 -27.516  32.965  1.00  0.00    -0.004 A 
ATOM     45  CE1 PHE A   6       9.904 -26.766  31.853  1.00  0.00    -0.000 A 
ATOM     46  CD2 PHE A   6      11.861 -27.976  33.412  1.00  0.00    -0.004 A 
ATOM     47  CE2 PHE A   6      12.224 -27.226  32.300  1.00  0.00    -0.000 A 
ATOM     48  CZ  PHE A   6      11.246 -26.622  31.520  1.00  0.00    -0.000 A 
ATOM     49  N   ALA A   7      10.635 -32.225  34.544  1.00  0.00    -0.196 N 
ATOM     50  CA  ALA A   7      11.851 -32.874  35.027  1.00  0.00    +0.173 C 
ATOM     51  C   ALA A   7      12.940 -31.851  35.309  1.00  0.00    +0.262 C 
ATOM     52  O   ALA A   7      12.970 -30.786  34.693  1.00  0.00    -0.271 OA
ATOM     53  CB  ALA A   7      12.359 -33.890  34.019  1.00  0.00    +0.033 C 
ATOM     54  N   LEU A   8      13.834 -32.172  36.240  1.00  0.00    -0.196 N 
ATOM     55  CA  LEU A   8      15.150 -31.540  36.281  1.00  0.00    +0.173 C 
ATOM     56  C   LEU A   8      16.047 -32.088  35.184  1.00  0.00    +0.262 C 
ATOM     57  O   LEU A   8      16.164 -33.302  35.021  1.00  0.00    -0.271 OA
ATOM     58  CB  LEU A   8      15.809 -31.757  37.633  1.00  0.00    +0.031 C 
ATOM     59  CG  LEU A   8      16.587 -30.569  38.201  1.00  0.00    +0.002 C 
ATOM     60  CD1 LEU A   8      15.780 -29.884  39.297  1.00  0.00    +0.000 C 
ATOM     61  CD2 LEU A   8      16.628 -29.425  37.193  1.00  0.00    +0.000 C 
ATOM     62  N   LEU A   9      16.682 -31.194  34.432  1.00  0.00    -0.196 N 
ATOM     63  CA  LEU A   9      17.982 -31.489  33.835  1.00  0.00    +0.173 C 
ATOM     64  C   LEU A   9      19.085 -31.415  34.877  1.00  0.00    +0.262 C 
ATOM     65  O   LEU A   9      19.313 -30.365  35.475  1.00  0.00    -0.271 OA
ATOM     66  CB  LEU A   9      18.286 -30.520  32.703  1.00  0.00    +0.031 C 
ATOM     67  CG  LEU A   9      19.463 -30.890  31.797  1.00  0.00    +0.002 C 
ATOM     68  CD1 LEU A   9      19.043 -30.826  30.334  1.00  0.00    +0.000 C 
ATOM     69  CD2 LEU A   9      19.761 -32.382  31.890  1.00  0.00    +0.000 C 
ATOM     70  N   VAL A  10      19.773 -32.534  35.098  1.00  0.00    -0.196 N 
ATOM     71  CA  VAL A  10      21.230 -32.527  35.171  1.00  0.00    +0.173 C 
ATOM     72  C   VAL A  10      21.800 -33.523  34.175  1.00  0.00    +0.262 C 
ATOM     73  O   VAL A  10      21.208 -34.573  33.931  1.00  0.00    -0.271 OA
ATOM     74  CB  VAL A  10      21.730 -32.865  36.567  1.00  0.00    +0.029 C 
ATOM     75  CG1 VAL A  10      22.440 -31.667  37.191  1.00  0.00    +0.002 C 
ATOM     76  CG2 VAL A  10      20.561 -33.246  37.473  1.00  0.00    +0.002 C 
ATOM     77  N   CYS A  11      22.952 -33.194  33.596  1.00  0.00    -0.195 N 
ATOM     78  CA  CYS A  11      23.537 -31.867  33.769  1.00  0.00    +0.184 C 
ATOM     79  C   CYS A  11      22.929 -30.875  32.791  1.00  0.00    +0.263 C 
ATOM     80  O   CYS A  11      21.962 -31.190  32.101  1.00  0.00    -0.271 OA
ATOM     81  CB  CYS A  11      25.044 -31.914  33.572  1.00  0.00    +0.100 C 
ATOM     82  SG  CYS A  11      25.966 -32.289  35.081  1.00  0.00    -0.080 S 
ATOM     83  N   PHE A  12      23.496 -29.674  32.731  1.00  0.00    -0.196 N 
ATOM     84  CA  PHE A  12      22.978 -28.631  31.851  1.00  0.00    +0.177 C 
ATOM     85  C   PHE A  12      23.890 -28.438  30.649  1.00  0.00    +0.262 C 
ATOM     86  O   PHE A  12      25.113 -28.485  30.780  1.00  0.00    -0.271 OA
ATOM     87  CB  PHE A  12      22.834 -27.314  32.595  1.00  0.00    +0.057 C 
ATOM     88  CG  PHE A  12      21.961 -26.313  31.896  1.00  0.00    -0.020 A 
ATOM     89  CD1 PHE A  12      22.531 -25.335  31.091  1.00  0.00    -0.004 A 
ATOM     90  CE1 PHE A  12      21.721 -24.409  30.444  1.00  0.00    -0.000 A 
ATOM     91  CD2 PHE A  12      20.581 -26.367  32.053  1.00  0.00    -0.004 A 
ATOM     92  CE2 PHE A  12      19.772 -25.442  31.405  1.00  0.00    -0.000 A 
ATOM     93  CZ  PHE A  12      20.342 -24.463  30.601  1.00  0.00    -0.000 A 
ATOM     94  N   ALA A  13      23.298 -28.221  29.479  1.00  0.00    -0.196 N 
ATOM     95  CA  ALA A  13      23.622 -27.051  28.668  1.00  0.00    +0.173 C 
ATOM     96  C   ALA A  13      22.629 -25.926  28.910  1.00  0.00    +0.262 C 
ATOM     97  O   ALA A  13      21.588 -26.135  29.533  1.00  0.00    -0.271 OA
ATOM     98  CB  ALA A  13      23.634 -27.405  27.189  1.00  0.00    +0.033 C 
ATOM     99  N   GLU A  14      22.949 -24.732  28.421  1.00  0.00    -0.196 N 
ATOM    100  CA  GLU A  14      21.944 -23.687  28.249  1.00  0.00    +0.173 C 
ATOM    101  C   GLU A  14      20.999 -24.016  27.105  1.00  0.00    +0.262 C 
ATOM    102  O   GLU A  14      21.297 -24.877  26.278  1.00  0.00    -0.271 OA
ATOM    103  CB  GLU A  14      22.600 -22.340  27.992  1.00  0.00    +0.043 C 
ATOM    104  CG  GLU A  14      23.424 -21.826  29.162  1.00  0.00    +0.116 C 
ATOM    105  CD  GLU A  14      24.048 -20.463  28.906  1.00  0.00    +0.365 C 
ATOM    106  OE1 GLU A  14      25.008 -20.377  28.110  1.00  0.00    -0.246 OA
ATOM    107  OE2 GLU A  14      23.573 -19.476  29.506  1.00  0.00    -0.246 OA
ATOM    108  N   SER A  15      19.861 -23.330  27.056  1.00  0.00    -0.194 N 
ATOM    109  CA  SER A  15      19.012 -23.351  25.867  1.00  0.00    +0.205 C 
ATOM    110  C   SER A  15      19.668 -22.618  24.709  1.00  0.00    +0.264 C 
ATOM    111  O   SER A  15      19.304 -22.827  23.552  1.00  0.00    -0.271 OA
ATOM    112  CB  SER A  15      17.660 -22.722  26.164  1.00  0.00    +0.213 C 
ATOM    113  OG  SER A  15      17.796 -21.334  26.413  1.00  0.00    -0.218 OA
ATOM    114  N   SER A  16      20.637 -21.760  25.017  1.00  0.00    -0.194 N 
ATOM    115  CA  SER A  16      21.131 -20.789  24.044  1.00  0.00    +0.205 C 
ATOM    116  C   SER A  16      21.811 -21.480  22.872  1.00  0.00    +0.264 C 
ATOM    117  O   SER A  16      21.619 -21.091  21.721  1.00  0.00    -0.271 OA
ATOM    118  CB  SER A  16      22.105 -19.823  24.698  1.00  0.00    +0.213 C 
ATOM    119  OG  SER A  16      21.410 -18.831  25.433  1.00  0.00    -0.218 OA
ATOM    120  N   ASP A  17      22.608 -22.505  23.165  1.00  0.00    -0.196 N 
ATOM    121  CA  ASP A  17      23.970 -22.582  22.644  1.00  0.00    +0.184 C 
ATOM    122  C   ASP A  17      24.003 -23.320  21.315  1.00  0.00    +0.262 C 
ATOM    123  O   ASP A  17      24.993 -23.977  20.993  1.00  0.00    -0.271 OA
ATOM    124  CB  ASP A  17      24.890 -23.276  23.633  1.00  0.00    +0.145 C 
ATOM    125  CG  ASP A  17      25.151 -22.451  24.883  1.00  0.00    +0.367 C 
ATOM    126  OD1 ASP A  17      24.967 -21.215  24.847  1.00  0.00    -0.246 OA
ATOM    127  OD2 ASP A  17      25.545 -23.045  25.911  1.00  0.00    -0.246 OA
ATOM    128  N   LEU A  18      22.925 -23.214  20.545  1.00  0.00    -0.196 N 
ATOM    129  CA  LEU A  18      23.036 -23.043  19.100  1.00  0.00    +0.173 C 
ATOM    130  C   LEU A  18      23.303 -21.590  18.745  1.00  0.00    +0.262 C 
ATOM    131  O   LEU A  18      22.862 -20.682  19.447  1.00  0.00    -0.271 OA
ATOM    132  CB  LEU A  18      21.769 -23.511  18.404  1.00  0.00    +0.031 C 
ATOM    133  CG  LEU A  18      21.754 -24.971  17.943  1.00  0.00    +0.002 C 
ATOM    134  CD1 LEU A  18      20.473 -25.268  17.174  1.00  0.00    +0.000 C 
ATOM    135  CD2 LEU A  18      21.536 -25.904  19.128  1.00  0.00    +0.000 C 
ATOM    136  N   VAL A  19      24.028 -21.367  17.651  1.00  0.00    -0.196 N 
ATOM    137  CA  VAL A  19      23.596 -20.412  16.635  1.00  0.00    +0.173 C 
ATOM    138  C   VAL A  19      23.189 -21.155  15.372  1.00  0.00    +0.262 C 
ATOM    139  O   VAL A  19      23.827 -22.134  14.990  1.00  0.00    -0.271 OA
ATOM    140  CB  VAL A  19      24.684 -19.405  16.302  1.00  0.00    +0.029 C 
ATOM    141  CG1 VAL A  19      25.181 -19.599  14.871  1.00  0.00    +0.002 C 
ATOM    142  CG2 VAL A  19      24.146 -17.981  16.425  1.00  0.00    +0.002 C 
ATOM    143  N   ARG A  20      22.125 -20.689  14.722  1.00  0.00    -0.196 N 
ATOM    144  CA  ARG A  20      21.799 -21.145  13.373  1.00  0.00    +0.174 C 
ATOM    145  C   ARG A  20      22.568 -20.351  12.330  1.00  0.00    +0.262 C 
ATOM    146  O   ARG A  20      23.478 -20.878  11.691  1.00  0.00    -0.271 OA
ATOM    147  CB  ARG A  20      20.308 -21.021  13.107  1.00  0.00    +0.053 C 
ATOM    148  CG  ARG A  20      19.890 -21.498  11.726  1.00  0.00    +0.102 C 
ATOM    149  CD  ARG A  20      20.616 -22.772  11.325  1.00  0.00    +0.149 C 
ATOM    150  NE  ARG A  20      20.450 -23.825  12.323  1.00  0.00    -0.232 NA
ATOM    151  CZ  ARG A  20      21.109 -24.980  12.324  1.00  0.00    +0.284 C 
ATOM    152  NH1 ARG A  20      21.234 -25.688  13.443  1.00  0.00    -0.104 N 
ATOM    153  NH2 ARG A  20      21.647 -25.432  11.196  1.00  0.00    -0.104 N 
ATOM    154  N   ARG A  21      22.205 -19.084  12.155  1.00  0.00    -0.194 N 
ATOM    155  CA  ARG A  21      21.662 -18.618  10.883  1.00  0.00    +0.198 C 
ATOM    156  C   ARG A  21      22.733 -17.935  10.051  1.00  0.00    +0.384 C 
ATOM    157  O   ARG A  21      22.692 -17.977   8.821  1.00  0.00    -0.244 OA
ATOM    158  CB  ARG A  21      20.505 -17.658  11.108  1.00  0.00    +0.035 C 
ATOM    159  CG  ARG A  21      19.184 -18.347  11.411  1.00  0.00    +0.024 C 
ATOM    160  CD  ARG A  21      19.387 -19.779  11.878  1.00  0.00    +0.094 C 
ATOM    161  NE  ARG A  21      18.447 -20.694  11.239  1.00  0.00    -0.275 N 
ATOM    162  CZ  ARG A  21      17.135 -20.712  11.462  1.00  0.00    +0.258 C 
ATOM    163  NH1 ARG A  21      16.589 -19.902  12.363  1.00  0.00    -0.108 NA
ATOM    164  NH2 ARG A  21      16.364 -21.552  10.776  1.00  0.00    -0.108 N 
ATOM    165  OXT ARG A  21      23.655 -17.330  10.593  1.00  0.00    -0.244 OA
ATOM    166  H   MET A   1      -6.499 -27.271  29.302  1.00  0.00    +0.000 HD
ATOM    167  H   MET A   1      -6.308 -26.145  28.089  1.00  0.00    +0.000 HD
ATOM    168  H   LYS A   2      -3.282 -29.400  28.457  1.00  0.00    +0.000 HD
ATOM    169  H   LYS A   2      -1.898 -35.364  29.021  1.00  0.00    +0.000 HD
ATOM    170  H   LEU A   3      -1.576 -29.138  32.737  1.00  0.00    +0.000 HD
ATOM    171  H   ALA A   4       2.835 -28.705  31.360  1.00  0.00    +0.000 HD
ATOM    172  H   VAL A   5       4.192 -32.091  34.357  1.00  0.00    +0.000 HD
ATOM    173  H   PHE A   6       7.683 -29.328  35.646  1.00  0.00    +0.000 HD
ATOM    174  H   ALA A   7      10.315 -32.418  33.634  1.00  0.00    +0.000 HD
ATOM    175  H   LEU A   8      13.604 -32.851  36.916  1.00  0.00    +0.000 HD
ATOM    176  H   LEU A   9      16.267 -30.316  34.274  1.00  0.00    +0.000 HD
ATOM    177  H   VAL A  10      19.288 -33.382  35.215  1.00  0.00    +0.000 HD
ATOM    178  H   CYS A  11      23.419 -33.858  33.039  1.00  0.00    +0.000 HD
ATOM    179  H   CYS A  11      25.618 -33.525  35.529  1.00  0.00    +0.000 HD
ATOM    180  H   PHE A  12      24.282 -29.483  33.292  1.00  0.00    +0.000 HD
ATOM    181  H   ALA A  13      22.627 -28.863  29.152  1.00  0.00    +0.000 HD
ATOM    182  H   GLU A  14      23.882 -24.549  28.168  1.00  0.00    +0.000 HD
ATOM    183  H   GLU A  14      22.852 -19.587  30.094  1.00  0.00    +0.000 HD
ATOM    184  H   SER A  15      19.585 -22.798  27.836  1.00  0.00    +0.000 HD
ATOM    185  H   SER A  15      18.370 -21.198  27.181  1.00  0.00    +0.000 HD
ATOM    186  H   SER A  16      21.029 -21.781  25.920  1.00  0.00    +0.000 HD
ATOM    187  H   SER A  16      20.884 -19.254  26.130  1.00  0.00    +0.000 HD
ATOM    188  H   ASP A  17      22.272 -23.226  23.744  1.00  0.00    +0.000 HD
ATOM    189  H   ASP A  17      24.672 -20.809  24.057  1.00  0.00    +0.000 HD
ATOM    190  H   LEU A  18      22.032 -23.251  20.959  1.00  0.00    +0.000 HD
ATOM    191  H   VAL A  19      24.874 -21.855  17.526  1.00  0.00    +0.000 HD
ATOM    192  H   ARG A  20      21.546 -20.023  15.159  1.00  0.00    +0.000 HD
ATOM    193  H   ARG A  20      21.724 -26.542  13.432  1.00  0.00    +0.000 HD
ATOM    194  H   ARG A  20      20.838 -25.358  14.282  1.00  0.00    +0.000 HD
ATOM    195  H   ARG A  20      22.135 -26.286  11.191  1.00  0.00    +0.000 HD
ATOM    196  H   ARG A  20      21.557 -24.911  10.364  1.00  0.00    +0.000 HD
ATOM    197  H   ARG A  21      22.304 -18.447  12.899  1.00  0.00    +0.000 HD
ATOM    198  H   ARG A  21      21.995 -18.434   8.392  1.00  0.00    +0.000 HD
ATOM    199  H   ARG A  21      17.155 -19.279  12.872  1.00  0.00    +0.000 HD
ATOM    200  H   ARG A  21      16.764 -22.154  10.108  1.00  0.00    +0.000 HD
ATOM    201  H   ARG A  21      15.393 -21.572  10.937  1.00  0.00    +0.000 HD
ENDROOT
TORSDOF 0
