REMARK  Name = /var/folders/yp/yjbh3p597675h2qddgqr02y00000gn/T/tmpk6nyxypb.pdb
REMARK     285 UNITARY VALUES FOR THE UNIT CELL AUTOMATICALLY SET
REMARK     285 BY MDANALYSIS PDBWRITER BECAUSE UNIT CELL INFORMATION
REMARK     285 WAS MISSING.
REMARK     285 PROTEIN DATA BANK CONVENTIONS REQUIRE THAT
REMARK     285 CRYST1 RECORD IS INCLUDED, BUT THE VALUES ON
REMARK     285 THIS RECORD ARE MEANINGLESS.
REMARK     285 UNITARY VALUES FOR THE UNIT CELL AUTOMATICALLY SET
REMARK     285 BY MDANALYSIS PDBWRITER BECAUSE UNIT CELL INFORMATION
REMARK     285 WAS MISSING.
REMARK     285 PROTEIN DATA BANK CONVENTIONS REQUIRE THAT
REMARK     285 CRYST1 RECORD IS INCLUDED, BUT THE VALUES ON
REMARK     285 THIS RECORD ARE MEANINGLESS.
REMARK                            x       y       z     vdW  Elec       q    Type
REMARK                         _______ _______ _______ _____ _____    ______ ____
REMARK  Name = /var/folders/yp/yjbh3p597675h2qddgqr02y00000gn/T/tmpk6nyxypb.pdb
REMARK     285 UNITARY VALUES FOR THE UNIT CELL AUTOMATICALLY SET
REMARK     285 BY MDANALYSIS PDBWRITER BECAUSE UNIT CELL INFORMATION
REMARK     285 WAS MISSING.
REMARK     285 PROTEIN DATA BANK CONVENTIONS REQUIRE THAT
REMARK     285 CRYST1 RECORD IS INCLUDED, BUT THE VALUES ON
REMARK     285 THIS RECORD ARE MEANINGLESS.
REMARK     285 UNITARY VALUES FOR THE UNIT CELL AUTOMATICALLY SET
REMARK     285 BY MDANALYSIS PDBWRITER BECAUSE UNIT CELL INFORMATION
REMARK     285 WAS MISSING.
REMARK     285 PROTEIN DATA BANK CONVENTIONS REQUIRE THAT
REMARK     285 CRYST1 RECORD IS INCLUDED, BUT THE VALUES ON
REMARK     285 THIS RECORD ARE MEANINGLESS.
REMARK                            x       y       z     vdW  Elec       q    Type
REMARK                         _______ _______ _______ _____ _____    ______ ____
ROOT
ATOM      1  N   MET A   1     -32.596  -5.059   5.600  1.00  0.00    -0.123 NA
ATOM      2  CA  MET A   1     -32.432  -3.687   5.128  1.00  0.00    +0.169 C 
ATOM      3  C   MET A   1     -33.767  -3.093   4.706  1.00  0.00    +0.252 C 
ATOM      4  O   MET A   1     -34.692  -3.824   4.356  1.00  0.00    -0.272 OA
ATOM      5  CB  MET A   1     -31.459  -3.627   3.962  1.00  0.00    +0.041 C 
ATOM      6  CG  MET A   1     -31.438  -2.282   3.253  1.00  0.00    +0.071 C 
ATOM      7  SD  MET A   1     -32.789  -1.196   3.775  1.00  0.00    -0.072 S 
ATOM      8  CE  MET A   1     -34.133  -1.844   2.787  1.00  0.00    +0.213 C 
ATOM      9  N   LYS A   2     -33.867  -1.768   4.740  1.00  0.00    -0.236 N 
ATOM     10  CA  LYS A   2     -35.094  -1.089   4.334  1.00  0.00    +0.132 C 
ATOM     11  C   LYS A   2     -35.303  -1.189   2.832  1.00  0.00    +0.206 C 
ATOM     12  O   LYS A   2     -34.350  -1.085   2.061  1.00  0.00    -0.325 OA
ATOM     13  CB  LYS A   2     -35.066   0.374   4.747  1.00  0.00    +0.055 C 
ATOM     14  CG  LYS A   2     -36.372   1.110   4.497  1.00  0.00    +0.125 C 
ATOM     15  CD  LYS A   2     -36.455   2.399   5.295  1.00  0.00    +0.079 C 
ATOM     16  CE  LYS A   2     -35.298   3.259   5.054  1.00  0.00    +0.098 C 
ATOM     17  NZ  LYS A   2     -35.276   4.573   5.253  1.00  0.00    -0.151 NA
ATOM     18  N   LEU A   3     -36.549  -1.390   2.415  1.00  0.00    -0.188 NA
ATOM     19  CA  LEU A   3     -37.233  -0.420   1.563  1.00  0.00    +0.119 C 
ATOM     20  C   LEU A   3     -38.081   0.528   2.395  1.00  0.00    +0.206 C 
ATOM     21  O   LEU A   3     -37.551   1.350   3.141  1.00  0.00    -0.340 OA
ATOM     22  CB  LEU A   3     -38.112  -1.124   0.543  1.00  0.00    +0.023 C 
ATOM     23  CG  LEU A   3     -39.071  -0.233  -0.248  1.00  0.00    +0.207 C 
ATOM     24  CD2 LEU A   3     -38.299   0.807  -1.051  1.00  0.00    +0.051 C 
ATOM     25  N   ALA A   4     -39.400   0.416   2.267  1.00  0.00    -0.183 NA
ATOM     26  CA  ALA A   4     -40.030  -0.872   1.987  1.00  0.00    +0.150 C 
ATOM     27  C   ALA A   4     -39.642  -1.382   0.609  1.00  0.00    +0.212 C 
ATOM     28  O   ALA A   4     -39.278  -0.601  -0.267  1.00  0.00    -0.463 OA
ATOM     29  CB  ALA A   4     -41.544  -0.763   2.079  1.00  0.00    +0.029 C 
ATOM     30  N   VAL A   5     -39.719  -2.696   0.417  1.00  0.00    -0.233 NA
ATOM     31  CA  VAL A   5     -39.111  -3.330  -0.749  1.00  0.00    +0.183 C 
ATOM     32  C   VAL A   5     -40.185  -3.662  -1.773  1.00  0.00    +0.264 C 
ATOM     33  O   VAL A   5     -41.313  -3.989  -1.411  1.00  0.00    -0.271 OA
ATOM     34  CB  VAL A   5     -38.358  -4.597  -0.377  1.00  0.00    +0.032 C 
ATOM     35  CG1 VAL A   5     -37.727  -5.233  -1.615  1.00  0.00    +0.003 C 
ATOM     36  CG2 VAL A   5     -37.237  -4.279   0.611  1.00  0.00    +0.003 C 
ATOM     37  N   PHE A   6     -39.835  -3.576  -3.052  1.00  0.00    -0.196 N 
ATOM     38  CA  PHE A   6     -40.436  -4.439  -4.066  1.00  0.00    +0.177 C 
ATOM     39  C   PHE A   6     -39.374  -5.280  -4.756  1.00  0.00    +0.262 C 
ATOM     40  O   PHE A   6     -38.198  -5.216  -4.401  1.00  0.00    -0.271 OA
ATOM     41  CB  PHE A   6     -41.186  -3.619  -5.103  1.00  0.00    +0.057 C 
ATOM     42  CG  PHE A   6     -42.418  -4.292  -5.631  1.00  0.00    -0.020 A 
ATOM     43  CD1 PHE A   6     -43.604  -4.239  -4.908  1.00  0.00    -0.004 A 
ATOM     44  CE1 PHE A   6     -44.745  -4.862  -5.399  1.00  0.00    -0.000 A 
ATOM     45  CD2 PHE A   6     -42.374  -4.968  -6.845  1.00  0.00    -0.004 A 
ATOM     46  CE2 PHE A   6     -43.514  -5.592  -7.335  1.00  0.00    -0.000 A 
ATOM     47  CZ  PHE A   6     -44.701  -5.539  -6.613  1.00  0.00    -0.000 A 
ATOM     48  N   ALA A   7     -39.788  -6.071  -5.742  1.00  0.00    -0.196 N 
ATOM     49  CA  ALA A   7     -40.074  -7.484  -5.515  1.00  0.00    +0.173 C 
ATOM     50  C   ALA A   7     -38.825  -8.230  -5.072  1.00  0.00    +0.262 C 
ATOM     51  O   ALA A   7     -37.711  -7.847  -5.426  1.00  0.00    -0.271 OA
ATOM     52  CB  ALA A   7     -40.634  -8.130  -6.771  1.00  0.00    +0.033 C 
ATOM     53  N   LEU A   8     -39.011  -9.296  -4.298  1.00  0.00    -0.196 N 
ATOM     54  CA  LEU A   8     -38.046 -10.392  -4.271  1.00  0.00    +0.173 C 
ATOM     55  C   LEU A   8     -38.244 -11.319  -5.458  1.00  0.00    +0.262 C 
ATOM     56  O   LEU A   8     -37.369 -12.124  -5.773  1.00  0.00    -0.271 OA
ATOM     57  CB  LEU A   8     -38.171 -11.186  -2.979  1.00  0.00    +0.031 C 
ATOM     58  CG  LEU A   8     -37.521 -10.566  -1.741  1.00  0.00    +0.002 C 
ATOM     59  CD1 LEU A   8     -37.172 -11.650  -0.729  1.00  0.00    +0.000 C 
ATOM     60  CD2 LEU A   8     -38.556  -9.804  -0.919  1.00  0.00    +0.000 C 
ATOM     61  N   LEU A   9     -39.395 -11.208  -6.116  1.00  0.00    -0.196 N 
ATOM     62  CA  LEU A   9     -39.831 -12.232  -7.060  1.00  0.00    +0.173 C 
ATOM     63  C   LEU A   9     -38.934 -12.254  -8.287  1.00  0.00    +0.262 C 
ATOM     64  O   LEU A   9     -38.688 -11.217  -8.901  1.00  0.00    -0.271 OA
ATOM     65  CB  LEU A   9     -41.270 -11.990  -7.489  1.00  0.00    +0.031 C 
ATOM     66  CG  LEU A   9     -42.047 -13.221  -7.964  1.00  0.00    +0.002 C 
ATOM     67  CD1 LEU A   9     -43.196 -12.801  -8.873  1.00  0.00    +0.000 C 
ATOM     68  CD2 LEU A   9     -42.860 -13.815  -6.820  1.00  0.00    +0.000 C 
ATOM     69  N   VAL A  10     -38.446 -13.437  -8.648  1.00  0.00    -0.196 N 
ATOM     70  CA  VAL A  10     -38.148 -13.744 -10.044  1.00  0.00    +0.173 C 
ATOM     71  C   VAL A  10     -38.719 -15.105 -10.405  1.00  0.00    +0.262 C 
ATOM     72  O   VAL A  10     -38.458 -16.094  -9.720  1.00  0.00    -0.271 OA
ATOM     73  CB  VAL A  10     -36.653 -13.731 -10.320  1.00  0.00    +0.029 C 
ATOM     74  CG1 VAL A  10     -36.369 -13.218 -11.729  1.00  0.00    +0.002 C 
ATOM     75  CG2 VAL A  10     -35.936 -12.815  -9.332  1.00  0.00    +0.002 C 
ATOM     76  N   CYS A  11     -39.501 -15.158 -11.480  1.00  0.00    -0.195 N 
ATOM     77  CA  CYS A  11     -39.257 -16.121 -12.551  1.00  0.00    +0.184 C 
ATOM     78  C   CYS A  11     -38.206 -15.601 -13.519  1.00  0.00    +0.263 C 
ATOM     79  O   CYS A  11     -37.810 -16.303 -14.448  1.00  0.00    -0.271 OA
ATOM     80  CB  CYS A  11     -40.541 -16.419 -13.308  1.00  0.00    +0.100 C 
ATOM     81  SG  CYS A  11     -41.749 -17.365 -12.352  1.00  0.00    -0.080 S 
ATOM     82  N   PHE A  12     -37.753 -14.369 -13.303  1.00  0.00    -0.196 N 
ATOM     83  CA  PHE A  12     -36.873 -13.704 -14.259  1.00  0.00    +0.177 C 
ATOM     84  C   PHE A  12     -35.464 -14.265 -14.174  1.00  0.00    +0.262 C 
ATOM     85  O   PHE A  12     -34.816 -14.171 -13.132  1.00  0.00    -0.271 OA
ATOM     86  CB  PHE A  12     -36.840 -12.205 -14.011  1.00  0.00    +0.057 C 
ATOM     87  CG  PHE A  12     -38.032 -11.473 -14.552  1.00  0.00    -0.020 A 
ATOM     88  CD1 PHE A  12     -38.655 -11.922 -15.712  1.00  0.00    -0.004 A 
ATOM     89  CE1 PHE A  12     -39.760 -11.244 -16.212  1.00  0.00    -0.000 A 
ATOM     90  CD2 PHE A  12     -38.514 -10.348 -13.895  1.00  0.00    -0.004 A 
ATOM     91  CE2 PHE A  12     -39.620  -9.671 -14.395  1.00  0.00    -0.000 A 
ATOM     92  CZ  PHE A  12     -40.243 -10.118 -15.554  1.00  0.00    -0.000 A 
ATOM     93  N   ALA A  13     -34.986 -14.849 -15.270  1.00  0.00    -0.196 N 
ATOM     94  CA  ALA A  13     -35.333 -16.225 -15.610  1.00  0.00    +0.173 C 
ATOM     95  C   ALA A  13     -34.093 -17.104 -15.660  1.00  0.00    +0.262 C 
ATOM     96  O   ALA A  13     -32.985 -16.610 -15.863  1.00  0.00    -0.271 OA
ATOM     97  CB  ALA A  13     -36.052 -16.285 -16.949  1.00  0.00    +0.033 C 
ATOM     98  N   GLU A  14     -34.280 -18.408 -15.476  1.00  0.00    -0.196 N 
ATOM     99  CA  GLU A  14     -33.415 -19.397 -16.111  1.00  0.00    +0.173 C 
ATOM    100  C   GLU A  14     -33.660 -19.458 -17.610  1.00  0.00    +0.262 C 
ATOM    101  O   GLU A  14     -34.726 -19.068 -18.085  1.00  0.00    -0.271 OA
ATOM    102  CB  GLU A  14     -33.629 -20.774 -15.505  1.00  0.00    +0.043 C 
ATOM    103  CG  GLU A  14     -32.802 -21.869 -16.161  1.00  0.00    +0.116 C 
ATOM    104  CD  GLU A  14     -33.025 -23.240 -15.545  1.00  0.00    +0.365 C 
ATOM    105  OE1 GLU A  14     -33.192 -23.330 -14.309  1.00  0.00    -0.246 OA
ATOM    106  OE2 GLU A  14     -33.034 -24.232 -16.306  1.00  0.00    -0.246 OA
ATOM    107  N   SER A  15     -32.674 -19.949 -18.357  1.00  0.00    -0.194 N 
ATOM    108  CA  SER A  15     -32.814 -20.091 -19.803  1.00  0.00    +0.205 C 
ATOM    109  C   SER A  15     -33.740 -21.242 -20.158  1.00  0.00    +0.264 C 
ATOM    110  O   SER A  15     -33.913 -22.170 -19.369  1.00  0.00    -0.271 OA
ATOM    111  CB  SER A  15     -31.458 -20.312 -20.454  1.00  0.00    +0.213 C 
ATOM    112  OG  SER A  15     -30.993 -21.628 -20.209  1.00  0.00    -0.218 OA
ATOM    113  N   SER A  16     -34.338 -21.183 -21.344  1.00  0.00    -0.194 N 
ATOM    114  CA  SER A  16     -35.134 -22.297 -21.850  1.00  0.00    +0.205 C 
ATOM    115  C   SER A  16     -34.288 -23.550 -22.015  1.00  0.00    +0.264 C 
ATOM    116  O   SER A  16     -34.802 -24.666 -21.937  1.00  0.00    -0.271 OA
ATOM    117  CB  SER A  16     -35.775 -21.938 -23.181  1.00  0.00    +0.213 C 
ATOM    118  OG  SER A  16     -36.405 -23.068 -23.757  1.00  0.00    -0.218 OA
ATOM    119  N   ASP A  17     -32.991 -23.368 -22.245  1.00  0.00    -0.196 N 
ATOM    120  CA  ASP A  17     -32.210 -24.340 -23.005  1.00  0.00    +0.184 C 
ATOM    121  C   ASP A  17     -31.780 -25.502 -22.123  1.00  0.00    +0.262 C 
ATOM    122  O   ASP A  17     -31.189 -26.465 -22.608  1.00  0.00    -0.271 OA
ATOM    123  CB  ASP A  17     -30.983 -23.689 -23.622  1.00  0.00    +0.145 C 
ATOM    124  CG  ASP A  17     -31.310 -22.440 -24.423  1.00  0.00    +0.367 C 
ATOM    125  OD1 ASP A  17     -32.503 -22.192 -24.707  1.00  0.00    -0.246 OA
ATOM    126  OD2 ASP A  17     -30.367 -21.699 -24.775  1.00  0.00    -0.246 OA
ATOM    127  N   LEU A  18     -32.077 -25.411 -20.831  1.00  0.00    -0.196 N 
ATOM    128  CA  LEU A  18     -31.548 -26.366 -19.861  1.00  0.00    +0.173 C 
ATOM    129  C   LEU A  18     -32.541 -26.597 -18.732  1.00  0.00    +0.262 C 
ATOM    130  O   LEU A  18     -33.092 -25.647 -18.180  1.00  0.00    -0.271 OA
ATOM    131  CB  LEU A  18     -30.230 -25.874 -19.285  1.00  0.00    +0.031 C 
ATOM    132  CG  LEU A  18     -29.420 -26.897 -18.486  1.00  0.00    +0.002 C 
ATOM    133  CD1 LEU A  18     -27.938 -26.552 -18.535  1.00  0.00    +0.000 C 
ATOM    134  CD2 LEU A  18     -29.373 -28.233 -19.220  1.00  0.00    +0.000 C 
ATOM    135  N   VAL A  19     -32.768 -27.861 -18.388  1.00  0.00    -0.196 N 
ATOM    136  CA  VAL A  19     -31.916 -28.553 -17.426  1.00  0.00    +0.173 C 
ATOM    137  C   VAL A  19     -31.023 -29.546 -18.152  1.00  0.00    +0.262 C 
ATOM    138  O   VAL A  19     -31.424 -30.128 -19.160  1.00  0.00    -0.271 OA
ATOM    139  CB  VAL A  19     -32.729 -29.281 -16.368  1.00  0.00    +0.029 C 
ATOM    140  CG1 VAL A  19     -33.619 -28.303 -15.605  1.00  0.00    +0.002 C 
ATOM    141  CG2 VAL A  19     -33.629 -30.331 -17.018  1.00  0.00    +0.002 C 
ATOM    142  N   ARG A  20     -29.811 -29.743 -17.641  1.00  0.00    -0.196 N 
ATOM    143  CA  ARG A  20     -29.275 -31.088 -17.450  1.00  0.00    +0.173 C 
ATOM    144  C   ARG A  20     -29.611 -31.616 -16.066  1.00  0.00    +0.262 C 
ATOM    145  O   ARG A  20     -30.425 -32.526 -15.924  1.00  0.00    -0.271 OA
ATOM    146  CB  ARG A  20     -27.768 -31.104 -17.649  1.00  0.00    +0.033 C 
ATOM    147  CG  ARG A  20     -27.145 -32.483 -17.503  1.00  0.00    +0.023 C 
ATOM    148  CD  ARG A  20     -27.408 -33.078 -16.129  1.00  0.00    +0.109 C 
ATOM    149  NE  ARG A  20     -26.988 -34.474 -16.057  1.00  0.00    -0.131 NA
ATOM    150  CZ  ARG A  20     -25.863 -34.957 -16.576  1.00  0.00    +0.149 C 
ATOM    151  NH1 ARG A  20     -25.560 -34.743 -17.853  1.00  0.00    -0.004 NA
ATOM    152  NH2 ARG A  20     -25.034 -35.659 -15.810  1.00  0.00    -0.004 NA
ATOM    153  N   ARG A  21     -28.981 -31.046 -15.041  1.00  0.00    -0.194 N 
ATOM    154  CA  ARG A  21     -27.787 -31.644 -14.454  1.00  0.00    +0.198 C 
ATOM    155  C   ARG A  21     -28.070 -32.161 -13.052  1.00  0.00    +0.384 C 
ATOM    156  O   ARG A  21     -28.074 -33.368 -12.820  1.00  0.00    -0.244 OA
ATOM    157  CB  ARG A  21     -26.647 -30.641 -14.405  1.00  0.00    +0.035 C 
ATOM    158  CG  ARG A  21     -25.367 -31.195 -13.800  1.00  0.00    +0.029 C 
ATOM    159  CD  ARG A  21     -24.502 -31.884 -14.843  1.00  0.00    +0.129 C 
ATOM    160  NE  ARG A  21     -25.254 -32.888 -15.591  1.00  0.00    -0.236 N 
ATOM    161  CZ  ARG A  21     -24.763 -33.614 -16.592  1.00  0.00    +0.258 C 
ATOM    162  NH1 ARG A  21     -23.568 -33.340 -17.105  1.00  0.00    -0.107 NA
ATOM    163  NH2 ARG A  21     -25.475 -34.624 -17.081  1.00  0.00    -0.214 NA
ATOM    164  OXT ARG A  21     -28.297 -31.378 -12.132  1.00  0.00    -0.244 OA
ATOM    165  H   MET A   1     -33.251  -5.075   6.381  1.00  0.00    +0.000 HD
ATOM    166  H   MET A   1     -31.693  -5.423   5.906  1.00  0.00    +0.000 HD
ATOM    167  H   MET A   1     -32.165  -0.004   3.972  1.00  0.00    +0.000 HD
ATOM    168  H   LYS A   2     -36.080   5.033   5.587  1.00  0.00    +0.000 HD
ATOM    169  H   LEU A   3     -36.543  -2.271   1.901  1.00  0.00    +0.000 HD
ATOM    170  H   ALA A   4     -39.804   0.749   3.142  1.00  0.00    +0.000 HD
ATOM    171  H   PHE A   6     -39.156  -2.916  -3.322  1.00  0.00    +0.000 HD
ATOM    172  H   ALA A   7     -39.903  -5.695  -6.645  1.00  0.00    +0.000 HD
ATOM    173  H   LEU A   8     -39.815  -9.347  -3.733  1.00  0.00    +0.000 HD
ATOM    174  H   LEU A   9     -39.964 -10.420  -5.963  1.00  0.00    +0.000 HD
ATOM    175  H   VAL A  10     -38.282 -14.121  -7.959  1.00  0.00    +0.000 HD
ATOM    176  H   CYS A  11     -40.260 -14.535 -11.556  1.00  0.00    +0.000 HD
ATOM    177  H   CYS A  11     -42.127 -16.647 -11.261  1.00  0.00    +0.000 HD
ATOM    178  H   PHE A  12     -38.017 -13.896 -12.480  1.00  0.00    +0.000 HD
ATOM    179  H   ALA A  13     -34.386 -14.343 -15.863  1.00  0.00    +0.000 HD
ATOM    180  H   GLU A  14     -35.017 -18.713 -14.899  1.00  0.00    +0.000 HD
ATOM    181  H   GLU A  14     -32.904 -24.117 -17.226  1.00  0.00    +0.000 HD
ATOM    182  H   SER A  15     -31.833 -20.222 -17.925  1.00  0.00    +0.000 HD
ATOM    183  H   SER A  15     -30.899 -21.765 -19.254  1.00  0.00    +0.000 HD
ATOM    184  H   SER A  16     -34.242 -20.372 -21.892  1.00  0.00    +0.000 HD
ATOM    185  H   SER A  16     -37.100 -23.389 -23.161  1.00  0.00    +0.000 HD
ATOM    186  H   ASP A  17     -32.548 -22.561 -21.896  1.00  0.00    +0.000 HD
ATOM    187  H   ASP A  17     -29.486 -21.920 -24.543  1.00  0.00    +0.000 HD
ATOM    188  H   LEU A  18     -32.666 -24.685 -20.521  1.00  0.00    +0.000 HD
ATOM    189  H   VAL A  19     -33.528 -28.341 -18.790  1.00  0.00    +0.000 HD
ATOM    190  H   ARG A  20     -29.264 -28.966 -17.384  1.00  0.00    +0.000 HD
ATOM    191  H   ARG A  20     -25.986 -34.537 -16.232  1.00  0.00    +0.000 HD
ATOM    192  H   ARG A  20     -27.491 -35.017 -16.759  1.00  0.00    +0.000 HD
ATOM    193  H   ARG A  20     -26.142 -35.567 -18.009  1.00  0.00    +0.000 HD
ATOM    194  H   ARG A  20     -24.644 -34.887 -18.279  1.00  0.00    +0.000 HD
ATOM    195  H   ARG A  20     -25.473 -36.570 -15.945  1.00  0.00    +0.000 HD
ATOM    196  H   ARG A  20     -25.342 -35.261 -14.923  1.00  0.00    +0.000 HD
ATOM    197  H   ARG A  21     -29.329 -30.202 -14.672  1.00  0.00    +0.000 HD
ATOM    198  H   ARG A  21     -26.193 -33.038 -15.336  1.00  0.00    +0.000 HD
ATOM    199  H   ARG A  21     -23.213 -33.883 -17.846  1.00  0.00    +0.000 HD
ATOM    200  H   ARG A  21     -28.298 -30.454 -12.293  1.00  0.00    +0.000 HD
ATOM      1  CD1 LEU A   3     -39.684  -1.013  -1.406  1.00  0.00    +0.000 C 
ENDROOT
TORSDOF 0
