REMARK  Name = /var/folders/yp/yjbh3p597675h2qddgqr02y00000gn/T/tmpk5o_ha_6.pdb
REMARK     285 UNITARY VALUES FOR THE UNIT CELL AUTOMATICALLY SET
REMARK     285 BY MDANALYSIS PDBWRITER BECAUSE UNIT CELL INFORMATION
REMARK     285 WAS MISSING.
REMARK     285 PROTEIN DATA BANK CONVENTIONS REQUIRE THAT
REMARK     285 CRYST1 RECORD IS INCLUDED, BUT THE VALUES ON
REMARK     285 THIS RECORD ARE MEANINGLESS.
REMARK     285 UNITARY VALUES FOR THE UNIT CELL AUTOMATICALLY SET
REMARK     285 BY MDANALYSIS PDBWRITER BECAUSE UNIT CELL INFORMATION
REMARK     285 WAS MISSING.
REMARK     285 PROTEIN DATA BANK CONVENTIONS REQUIRE THAT
REMARK     285 CRYST1 RECORD IS INCLUDED, BUT THE VALUES ON
REMARK     285 THIS RECORD ARE MEANINGLESS.
REMARK                            x       y       z     vdW  Elec       q    Type
REMARK                         _______ _______ _______ _____ _____    ______ ____
REMARK  Name = /var/folders/yp/yjbh3p597675h2qddgqr02y00000gn/T/tmpk5o_ha_6.pdb
REMARK     285 UNITARY VALUES FOR THE UNIT CELL AUTOMATICALLY SET
REMARK     285 BY MDANALYSIS PDBWRITER BECAUSE UNIT CELL INFORMATION
REMARK     285 WAS MISSING.
REMARK     285 PROTEIN DATA BANK CONVENTIONS REQUIRE THAT
REMARK     285 CRYST1 RECORD IS INCLUDED, BUT THE VALUES ON
REMARK     285 THIS RECORD ARE MEANINGLESS.
REMARK     285 UNITARY VALUES FOR THE UNIT CELL AUTOMATICALLY SET
REMARK     285 BY MDANALYSIS PDBWRITER BECAUSE UNIT CELL INFORMATION
REMARK     285 WAS MISSING.
REMARK     285 PROTEIN DATA BANK CONVENTIONS REQUIRE THAT
REMARK     285 CRYST1 RECORD IS INCLUDED, BUT THE VALUES ON
REMARK     285 THIS RECORD ARE MEANINGLESS.
REMARK                            x       y       z     vdW  Elec       q    Type
REMARK                         _______ _______ _______ _____ _____    ______ ____
REMARK  Name = /var/folders/yp/yjbh3p597675h2qddgqr02y00000gn/T/tmpk5o_ha_6.pdb
REMARK     285 UNITARY VALUES FOR THE UNIT CELL AUTOMATICALLY SET
REMARK     285 BY MDANALYSIS PDBWRITER BECAUSE UNIT CELL INFORMATION
REMARK     285 WAS MISSING.
REMARK     285 PROTEIN DATA BANK CONVENTIONS REQUIRE THAT
REMARK     285 CRYST1 RECORD IS INCLUDED, BUT THE VALUES ON
REMARK     285 THIS RECORD ARE MEANINGLESS.
REMARK     285 UNITARY VALUES FOR THE UNIT CELL AUTOMATICALLY SET
REMARK     285 BY MDANALYSIS PDBWRITER BECAUSE UNIT CELL INFORMATION
REMARK     285 WAS MISSING.
REMARK     285 PROTEIN DATA BANK CONVENTIONS REQUIRE THAT
REMARK     285 CRYST1 RECORD IS INCLUDED, BUT THE VALUES ON
REMARK     285 THIS RECORD ARE MEANINGLESS.
REMARK                            x       y       z     vdW  Elec       q    Type
REMARK                         _______ _______ _______ _____ _____    ______ ____
ROOT
ATOM      1  N   MET A   1       4.697 -21.711 -14.076  1.00  0.00    -0.123 NA
ATOM      2  CA  MET A   1       5.465 -22.940 -14.256  1.00  0.00    +0.170 C 
ATOM      3  C   MET A   1       4.840 -23.820 -15.325  1.00  0.00    +0.259 C 
ATOM      4  O   MET A   1       3.627 -23.788 -15.531  1.00  0.00    -0.272 OA
ATOM      5  CB  MET A   1       5.559 -23.715 -12.952  1.00  0.00    +0.040 C 
ATOM      6  CG  MET A   1       6.414 -24.968 -13.047  1.00  0.00    +0.063 C 
ATOM      7  SD  MET A   1       5.486 -26.477 -12.672  1.00  0.00    -0.094 S 
ATOM      8  CE  MET A   1       6.062 -27.552 -13.981  1.00  0.00    +0.265 C 
ATOM      9  N   LYS A   2       5.666 -24.609 -16.007  1.00  0.00    -0.197 N 
ATOM     10  CA  LYS A   2       5.162 -25.615 -16.937  1.00  0.00    +0.170 C 
ATOM     11  C   LYS A   2       4.752 -26.882 -16.201  1.00  0.00    +0.217 C 
ATOM     12  O   LYS A   2       5.569 -27.497 -15.518  1.00  0.00    -0.450 OA
ATOM     13  CB  LYS A   2       6.208 -25.953 -17.987  1.00  0.00    +0.032 C 
ATOM     14  CG  LYS A   2       5.738 -25.729 -19.416  1.00  0.00    +0.009 C 
ATOM     15  CD  LYS A   2       4.657 -26.719 -19.816  1.00  0.00    +0.049 C 
ATOM     16  CE  LYS A   2       3.329 -26.255 -19.422  1.00  0.00    +0.096 C 
ATOM     17  NZ  LYS A   2       2.274 -27.044 -19.236  1.00  0.00    -0.151 NA
ATOM     18  N   LEU A   3       3.490 -27.271 -16.341  1.00  0.00    -0.233 NA
ATOM     19  CA  LEU A   3       2.967 -28.432 -15.627  1.00  0.00    +0.183 C 
ATOM     20  C   LEU A   3       3.327 -29.719 -16.350  1.00  0.00    +0.264 C 
ATOM     21  O   LEU A   3       3.305 -29.771 -17.579  1.00  0.00    -0.271 OA
ATOM     22  CB  LEU A   3       1.457 -28.339 -15.477  1.00  0.00    +0.034 C 
ATOM     23  CG  LEU A   3       0.928 -27.108 -14.739  1.00  0.00    +0.002 C 
ATOM     24  CD1 LEU A   3      -0.548 -26.898 -15.055  1.00  0.00    +0.000 C 
ATOM     25  CD2 LEU A   3       1.483 -25.831 -15.361  1.00  0.00    +0.000 C 
ATOM     26  N   ALA A   4       3.661 -30.757 -15.591  1.00  0.00    -0.196 N 
ATOM     27  CA  ALA A   4       2.781 -31.914 -15.453  1.00  0.00    +0.173 C 
ATOM     28  C   ALA A   4       1.470 -31.527 -14.788  1.00  0.00    +0.262 C 
ATOM     29  O   ALA A   4       1.373 -30.468 -14.170  1.00  0.00    -0.271 OA
ATOM     30  CB  ALA A   4       3.455 -33.013 -14.646  1.00  0.00    +0.033 C 
ATOM     31  N   VAL A   5       0.462 -32.383 -14.915  1.00  0.00    -0.196 N 
ATOM     32  CA  VAL A   5      -0.330 -32.802 -13.762  1.00  0.00    +0.173 C 
ATOM     33  C   VAL A   5       0.021 -34.232 -13.388  1.00  0.00    +0.262 C 
ATOM     34  O   VAL A   5       0.473 -35.005 -14.232  1.00  0.00    -0.271 OA
ATOM     35  CB  VAL A   5      -1.824 -32.700 -14.032  1.00  0.00    +0.029 C 
ATOM     36  CG1 VAL A   5      -2.198 -31.288 -14.476  1.00  0.00    +0.002 C 
ATOM     37  CG2 VAL A   5      -2.232 -33.667 -15.141  1.00  0.00    +0.002 C 
ATOM     38  N   PHE A   6      -0.186 -34.586 -12.123  1.00  0.00    -0.196 N 
ATOM     39  CA  PHE A   6      -0.262 -35.990 -11.729  1.00  0.00    +0.177 C 
ATOM     40  C   PHE A   6      -1.693 -36.495 -11.806  1.00  0.00    +0.262 C 
ATOM     41  O   PHE A   6      -1.939 -37.609 -12.268  1.00  0.00    -0.271 OA
ATOM     42  CB  PHE A   6       0.271 -36.187 -10.319  1.00  0.00    +0.057 C 
ATOM     43  CG  PHE A   6       1.742 -35.922 -10.184  1.00  0.00    -0.020 A 
ATOM     44  CD1 PHE A   6       2.658 -36.928 -10.468  1.00  0.00    -0.004 A 
ATOM     45  CE1 PHE A   6       4.020 -36.682 -10.343  1.00  0.00    -0.000 A 
ATOM     46  CD2 PHE A   6       2.188 -34.671  -9.774  1.00  0.00    -0.004 A 
ATOM     47  CE2 PHE A   6       3.550 -34.426  -9.648  1.00  0.00    -0.000 A 
ATOM     48  CZ  PHE A   6       4.466 -35.432  -9.933  1.00  0.00    -0.000 A 
ATOM     49  N   ALA A   7      -2.640 -35.676 -11.354  1.00  0.00    -0.196 N 
ATOM     50  CA  ALA A   7      -3.934 -36.185 -10.909  1.00  0.00    +0.173 C 
ATOM     51  C   ALA A   7      -4.721 -36.769 -12.071  1.00  0.00    +0.262 C 
ATOM     52  O   ALA A   7      -5.324 -37.833 -11.942  1.00  0.00    -0.271 OA
ATOM     53  CB  ALA A   7      -4.748 -35.083 -10.247  1.00  0.00    +0.033 C 
ATOM     54  N   LEU A   8      -4.715 -36.074 -13.204  1.00  0.00    -0.196 N 
ATOM     55  CA  LEU A   8      -4.261 -34.687 -13.245  1.00  0.00    +0.173 C 
ATOM     56  C   LEU A   8      -5.377 -33.742 -12.829  1.00  0.00    +0.262 C 
ATOM     57  O   LEU A   8      -5.115 -32.679 -12.266  1.00  0.00    -0.271 OA
ATOM     58  CB  LEU A   8      -3.777 -34.319 -14.637  1.00  0.00    +0.033 C 
ATOM     59  CG  LEU A   8      -2.337 -34.711 -14.975  1.00  0.00    +0.000 C 
ATOM     60  CD1 LEU A   8      -1.718 -33.686 -15.918  1.00  0.00    +0.000 C 
ATOM     61  N   LEU A   9      -6.618 -34.127 -13.104  1.00  0.00    -0.196 N 
ATOM     62  CA  LEU A   9      -7.439 -33.409 -14.076  1.00  0.00    +0.173 C 
ATOM     63  C   LEU A   9      -8.018 -32.144 -13.465  1.00  0.00    +0.262 C 
ATOM     64  O   LEU A   9      -8.460 -32.148 -12.317  1.00  0.00    -0.271 OA
ATOM     65  CB  LEU A   9      -8.568 -34.291 -14.583  1.00  0.00    +0.031 C 
ATOM     66  CG  LEU A   9      -8.170 -35.399 -15.560  1.00  0.00    +0.002 C 
ATOM     67  CD1 LEU A   9      -8.488 -34.984 -16.991  1.00  0.00    +0.000 C 
ATOM     68  CD2 LEU A   9      -9.122 -36.584 -15.444  1.00  0.00    +0.000 C 
ATOM     69  N   VAL A  10      -8.017 -31.056 -14.231  1.00  0.00    -0.196 N 
ATOM     70  CA  VAL A  10      -8.626 -29.808 -13.780  1.00  0.00    +0.173 C 
ATOM     71  C   VAL A  10      -9.689 -29.367 -14.772  1.00  0.00    +0.262 C 
ATOM     72  O   VAL A  10      -9.416 -29.230 -15.962  1.00  0.00    -0.271 OA
ATOM     73  CB  VAL A  10      -7.596 -28.702 -13.615  1.00  0.00    +0.029 C 
ATOM     74  CG1 VAL A  10      -8.031 -27.715 -12.534  1.00  0.00    +0.002 C 
ATOM     75  CG2 VAL A  10      -6.246 -29.287 -13.204  1.00  0.00    +0.002 C 
ATOM     76  N   CYS A  11     -10.905 -29.141 -14.280  1.00  0.00    -0.195 N 
ATOM     77  CA  CYS A  11     -11.929 -30.181 -14.281  1.00  0.00    +0.184 C 
ATOM     78  C   CYS A  11     -12.965 -29.921 -15.363  1.00  0.00    +0.263 C 
ATOM     79  O   CYS A  11     -12.875 -28.933 -16.090  1.00  0.00    -0.271 OA
ATOM     80  CB  CYS A  11     -12.619 -30.259 -12.928  1.00  0.00    +0.100 C 
ATOM     81  SG  CYS A  11     -11.904 -29.164 -11.680  1.00  0.00    -0.080 S 
ATOM     82  N   PHE A  12     -13.950 -30.809 -15.471  1.00  0.00    -0.196 N 
ATOM     83  CA  PHE A  12     -14.222 -31.493 -16.731  1.00  0.00    +0.177 C 
ATOM     84  C   PHE A  12     -14.953 -30.574 -17.696  1.00  0.00    +0.262 C 
ATOM     85  O   PHE A  12     -14.546 -30.425 -18.846  1.00  0.00    -0.271 OA
ATOM     86  CB  PHE A  12     -15.050 -32.748 -16.499  1.00  0.00    +0.057 C 
ATOM     87  CG  PHE A  12     -14.442 -33.701 -15.514  1.00  0.00    -0.020 A 
ATOM     88  CD1 PHE A  12     -13.118 -34.098 -15.657  1.00  0.00    -0.004 A 
ATOM     89  CE1 PHE A  12     -12.554 -34.981 -14.743  1.00  0.00    -0.000 A 
ATOM     90  CD2 PHE A  12     -15.204 -34.188 -14.457  1.00  0.00    -0.004 A 
ATOM     91  CE2 PHE A  12     -14.640 -35.072 -13.544  1.00  0.00    -0.000 A 
ATOM     92  CZ  PHE A  12     -13.317 -35.468 -13.687  1.00  0.00    -0.000 A 
ATOM     93  N   ALA A  13     -16.036 -29.958 -17.228  1.00  0.00    -0.194 N 
ATOM     94  CA  ALA A  13     -17.267 -30.690 -16.949  1.00  0.00    +0.202 C 
ATOM     95  C   ALA A  13     -17.914 -31.181 -18.234  1.00  0.00    +0.264 C 
ATOM     96  O   ALA A  13     -17.894 -30.485 -19.249  1.00  0.00    -0.271 OA
ATOM     97  CB  ALA A  13     -18.253 -29.819 -16.187  1.00  0.00    +0.175 C 
ATOM     98  N   GLU A  14     -18.488 -32.380 -18.193  1.00  0.00    -0.202 N 
ATOM     99  CA  GLU A  14     -19.824 -32.565 -17.633  1.00  0.00    +0.139 C 
ATOM    100  C   GLU A  14     -19.877 -32.118 -16.182  1.00  0.00    +0.209 C 
ATOM    101  O   GLU A  14     -19.136 -31.224 -15.776  1.00  0.00    -0.336 OA
ATOM    102  CB  GLU A  14     -20.256 -34.020 -17.732  1.00  0.00    +0.026 C 
ATOM    103  CG  GLU A  14     -21.509 -34.342 -16.934  1.00  0.00    +0.002 C 
ATOM    104  N   SER A  15     -20.752 -32.741 -15.397  1.00  0.00    -0.188 NA
ATOM    105  CA  SER A  15     -20.640 -34.169 -15.116  1.00  0.00    +0.127 C 
ATOM    106  C   SER A  15     -21.019 -35.001 -16.329  1.00  0.00    +0.000 C 
ATOM    107  CB  SER A  15     -21.523 -34.555 -13.941  1.00  0.00    +0.201 C 
ATOM    108  OG  SER A  15     -22.893 -34.462 -14.291  1.00  0.00    -0.219 OA
ATOM    109  H   MET A   1       4.647 -21.208 -14.962  1.00  0.00    +0.000 HD
ATOM    110  H   MET A   1       5.153 -21.123 -13.378  1.00  0.00    +0.000 HD
ATOM    111  H   LYS A   2       6.637 -24.514 -15.881  1.00  0.00    +0.000 HD
ATOM    112  H   LYS A   2       2.359 -28.017 -19.364  1.00  0.00    +0.000 HD
ATOM    113  H   ALA A   4       4.521 -30.747 -15.112  1.00  0.00    +0.000 HD
ATOM    114  H   VAL A   5       0.244 -32.741 -15.806  1.00  0.00    +0.000 HD
ATOM    115  H   PHE A   6      -0.289 -33.886 -11.437  1.00  0.00    +0.000 HD
ATOM    116  H   ALA A   7      -2.464 -34.709 -11.319  1.00  0.00    +0.000 HD
ATOM    117  H   LEU A   8      -5.023 -36.504 -14.035  1.00  0.00    +0.000 HD
ATOM    118  H   LEU A   9      -6.993 -34.912 -12.643  1.00  0.00    +0.000 HD
ATOM    119  H   VAL A  10      -7.597 -31.093 -15.120  1.00  0.00    +0.000 HD
ATOM    120  H   CYS A  11     -11.118 -28.255 -13.908  1.00  0.00    +0.000 HD
ATOM    121  H   CYS A  11     -10.611 -29.519 -11.451  1.00  0.00    +0.000 HD
ATOM    122  H   PHE A  12     -14.507 -31.007 -14.684  1.00  0.00    +0.000 HD
ATOM    123  H   ALA A  13     -16.006 -28.988 -17.066  1.00  0.00    +0.000 HD
ATOM    124  H   GLU A  14     -18.002 -33.159 -18.548  1.00  0.00    +0.000 HD
ATOM    125  H   SER A  15     -21.669 -32.603 -15.822  1.00  0.00    +0.000 HD
ATOM    126  H   SER A  15     -23.102 -33.548 -14.542  1.00  0.00    +0.000 HD
ATOM      1  CD2 LEU A   8      -2.315 -35.923 -15.900  1.00  0.00    +0.000 C 
ATOM      1  CD  GLU A  14     -21.965 -35.784 -17.089  1.00  0.00    +0.536 C 
ATOM      2  OE1 GLU A  14     -21.604 -36.430 -18.096  1.00  0.00    -0.395 OA
ATOM      3  OE2 GLU A  14     -22.691 -36.270 -16.195  1.00  0.00    -0.310 OA
ATOM      4  O   SER A  15     -21.630 -34.493 -17.269  1.00  0.00    -0.201 OA
ATOM      5  N   SER A  16     -20.657 -36.281 -16.313  1.00  0.00    -0.080 NA
ATOM      6  CA  SER A  16     -21.022 -37.190 -17.396  1.00  0.00    +0.316 C 
ATOM      7  C   SER A  16     -22.529 -37.370 -17.480  1.00  0.00    +0.314 C 
ATOM      8  O   SER A  16     -23.077 -37.556 -18.566  1.00  0.00    -0.266 OA
ATOM      9  CB  SER A  16     -20.360 -38.544 -17.208  1.00  0.00    +0.250 C 
ATOM     10  OG  SER A  16     -21.268 -39.474 -16.642  1.00  0.00    -0.214 OA
ATOM     11  N   ASP A  17     -23.201 -37.316 -16.333  1.00  0.00    -0.105 N 
ATOM     12  CA  ASP A  17     -24.247 -38.283 -16.018  1.00  0.00    +0.204 C 
ATOM     13  C   ASP A  17     -25.545 -37.936 -16.730  1.00  0.00    +0.264 C 
ATOM     14  O   ASP A  17     -26.504 -38.705 -16.688  1.00  0.00    -0.271 OA
ATOM     15  CB  ASP A  17     -24.493 -38.349 -14.520  1.00  0.00    +0.147 C 
ATOM     16  CG  ASP A  17     -23.222 -38.568 -13.717  1.00  0.00    +0.367 C 
ATOM     17  OD1 ASP A  17     -22.137 -38.710 -14.320  1.00  0.00    -0.246 OA
ATOM     18  OD2 ASP A  17     -23.308 -38.598 -12.470  1.00  0.00    -0.246 OA
ATOM     19  N   LEU A  18     -25.575 -36.779 -17.385  1.00  0.00    -0.196 N 
ATOM     20  CA  LEU A  18     -26.832 -36.087 -17.650  1.00  0.00    +0.173 C 
ATOM     21  C   LEU A  18     -27.023 -35.861 -19.142  1.00  0.00    +0.262 C 
ATOM     22  O   LEU A  18     -26.164 -35.278 -19.801  1.00  0.00    -0.271 OA
ATOM     23  CB  LEU A  18     -26.877 -34.753 -16.926  1.00  0.00    +0.031 C 
ATOM     24  CG  LEU A  18     -28.263 -34.130 -16.746  1.00  0.00    +0.002 C 
ATOM     25  CD1 LEU A  18     -28.712 -33.462 -18.040  1.00  0.00    +0.000 C 
ATOM     26  CD2 LEU A  18     -28.183 -32.891 -15.861  1.00  0.00    +0.000 C 
ATOM     27  N   VAL A  19     -28.150 -36.324 -19.676  1.00  0.00    -0.196 N 
ATOM     28  CA  VAL A  19     -28.970 -35.495 -20.555  1.00  0.00    +0.173 C 
ATOM     29  C   VAL A  19     -30.166 -34.957 -19.787  1.00  0.00    +0.262 C 
ATOM     30  O   VAL A  19     -30.612 -35.566 -18.818  1.00  0.00    -0.271 OA
ATOM     31  CB  VAL A  19     -29.454 -36.267 -21.772  1.00  0.00    +0.029 C 
ATOM     32  CG1 VAL A  19     -28.273 -36.832 -22.559  1.00  0.00    +0.002 C 
ATOM     33  CG2 VAL A  19     -30.337 -37.438 -21.343  1.00  0.00    +0.002 C 
ATOM     34  N   ARG A  20     -30.688 -33.813 -20.221  1.00  0.00    -0.196 N 
ATOM     35  CA  ARG A  20     -32.112 -33.524 -20.080  1.00  0.00    +0.173 C 
ATOM     36  C   ARG A  20     -32.905 -34.125 -21.230  1.00  0.00    +0.262 C 
ATOM     37  O   ARG A  20     -33.906 -34.807 -21.008  1.00  0.00    -0.271 OA
ATOM     38  CB  ARG A  20     -32.358 -32.026 -20.023  1.00  0.00    +0.033 C 
ATOM     39  CG  ARG A  20     -32.276 -31.443 -18.622  1.00  0.00    +0.029 C 
ATOM     40  CD  ARG A  20     -31.385 -30.213 -18.572  1.00  0.00    +0.129 C 
ATOM     41  NE  ARG A  20     -31.921 -29.193 -17.676  1.00  0.00    -0.234 NA
ATOM     42  CZ  ARG A  20     -31.450 -27.954 -17.567  1.00  0.00    +0.284 C 
ATOM     43  NH1 ARG A  20     -30.441 -27.544 -18.329  1.00  0.00    -0.104 N 
ATOM     44  NH2 ARG A  20     -31.992 -27.119 -16.685  1.00  0.00    -0.104 N 
ATOM     45  N   ARG A  21     -32.461 -33.873 -22.457  1.00  0.00    -0.194 N 
ATOM     46  CA  ARG A  21     -33.309 -33.229 -23.455  1.00  0.00    +0.198 C 
ATOM     47  C   ARG A  21     -33.580 -34.161 -24.625  1.00  0.00    +0.384 C 
ATOM     48  O   ARG A  21     -34.396 -35.076 -24.520  1.00  0.00    -0.244 OA
ATOM     49  CB  ARG A  21     -32.670 -31.948 -23.964  1.00  0.00    +0.035 C 
ATOM     50  CG  ARG A  21     -33.551 -31.157 -24.916  1.00  0.00    +0.029 C 
ATOM     51  CD  ARG A  21     -35.027 -31.431 -24.680  1.00  0.00    +0.129 C 
ATOM     52  NE  ARG A  21     -35.699 -31.857 -25.904  1.00  0.00    -0.234 NA
ATOM     53  CZ  ARG A  21     -35.776 -31.134 -27.019  1.00  0.00    +0.284 C 
ATOM     54  NH1 ARG A  21     -35.300 -29.892 -27.056  1.00  0.00    -0.104 N 
ATOM     55  NH2 ARG A  21     -36.334 -31.659 -28.106  1.00  0.00    -0.104 N 
ATOM     56  OXT ARG A  21     -32.987 -34.014 -25.691  1.00  0.00    -0.244 OA
ATOM     57  H   SER A  16     -21.111 -35.379 -16.458  1.00  0.00    +0.000 HD
ATOM     58  H   SER A  16     -19.645 -36.155 -16.303  1.00  0.00    +0.000 HD
ATOM     59  H   SER A  16     -21.560 -39.153 -15.774  1.00  0.00    +0.000 HD
ATOM     60  H   ASP A  17     -24.141 -38.488 -12.056  1.00  0.00    +0.000 HD
ATOM     61  H   LEU A  18     -24.730 -36.381 -17.698  1.00  0.00    +0.000 HD
ATOM     62  H   VAL A  19     -28.437 -37.244 -19.475  1.00  0.00    +0.000 HD
ATOM     63  H   ARG A  20     -30.101 -33.147 -20.646  1.00  0.00    +0.000 HD
ATOM     64  H   ARG A  20     -30.099 -26.625 -18.241  1.00  0.00    +0.000 HD
ATOM     65  H   ARG A  20     -30.034 -28.160 -18.982  1.00  0.00    +0.000 HD
ATOM     66  H   ARG A  20     -31.647 -26.201 -16.601  1.00  0.00    +0.000 HD
ATOM     67  H   ARG A  20     -32.738 -27.419 -16.117  1.00  0.00    +0.000 HD
ATOM     68  H   ARG A  21     -31.540 -34.127 -22.697  1.00  0.00    +0.000 HD
ATOM     69  H   ARG A  21     -34.856 -35.203 -23.714  1.00  0.00    +0.000 HD
ATOM     70  H   ARG A  21     -35.362 -29.366 -27.886  1.00  0.00    +0.000 HD
ATOM     71  H   ARG A  21     -34.886 -29.500 -26.254  1.00  0.00    +0.000 HD
ATOM     72  H   ARG A  21     -36.394 -31.129 -28.933  1.00  0.00    +0.000 HD
ATOM     73  H   ARG A  21     -36.687 -32.577 -28.082  1.00  0.00    +0.000 HD
ENDROOT
TORSDOF 0
