REMARK  Name = /var/folders/yp/yjbh3p597675h2qddgqr02y00000gn/T/tmpe08fteig.pdb
REMARK     285 UNITARY VALUES FOR THE UNIT CELL AUTOMATICALLY SET
REMARK     285 BY MDANALYSIS PDBWRITER BECAUSE UNIT CELL INFORMATION
REMARK     285 WAS MISSING.
REMARK     285 PROTEIN DATA BANK CONVENTIONS REQUIRE THAT
REMARK     285 CRYST1 RECORD IS INCLUDED, BUT THE VALUES ON
REMARK     285 THIS RECORD ARE MEANINGLESS.
REMARK     285 UNITARY VALUES FOR THE UNIT CELL AUTOMATICALLY SET
REMARK     285 BY MDANALYSIS PDBWRITER BECAUSE UNIT CELL INFORMATION
REMARK     285 WAS MISSING.
REMARK     285 PROTEIN DATA BANK CONVENTIONS REQUIRE THAT
REMARK     285 CRYST1 RECORD IS INCLUDED, BUT THE VALUES ON
REMARK     285 THIS RECORD ARE MEANINGLESS.
REMARK                            x       y       z     vdW  Elec       q    Type
REMARK                         _______ _______ _______ _____ _____    ______ ____
REMARK  Name = /var/folders/yp/yjbh3p597675h2qddgqr02y00000gn/T/tmpe08fteig.pdb
REMARK     285 UNITARY VALUES FOR THE UNIT CELL AUTOMATICALLY SET
REMARK     285 BY MDANALYSIS PDBWRITER BECAUSE UNIT CELL INFORMATION
REMARK     285 WAS MISSING.
REMARK     285 PROTEIN DATA BANK CONVENTIONS REQUIRE THAT
REMARK     285 CRYST1 RECORD IS INCLUDED, BUT THE VALUES ON
REMARK     285 THIS RECORD ARE MEANINGLESS.
REMARK     285 UNITARY VALUES FOR THE UNIT CELL AUTOMATICALLY SET
REMARK     285 BY MDANALYSIS PDBWRITER BECAUSE UNIT CELL INFORMATION
REMARK     285 WAS MISSING.
REMARK     285 PROTEIN DATA BANK CONVENTIONS REQUIRE THAT
REMARK     285 CRYST1 RECORD IS INCLUDED, BUT THE VALUES ON
REMARK     285 THIS RECORD ARE MEANINGLESS.
REMARK                            x       y       z     vdW  Elec       q    Type
REMARK                         _______ _______ _______ _____ _____    ______ ____
ROOT
ATOM      1  N   MET A   1     -17.804   5.566   4.714  1.00  0.00    -0.123 NA
ATOM      2  CA  MET A   1     -19.042   6.198   4.267  1.00  0.00    +0.170 C 
ATOM      3  C   MET A   1     -20.210   5.230   4.363  1.00  0.00    +0.259 C 
ATOM      4  O   MET A   1     -20.077   4.053   4.029  1.00  0.00    -0.272 OA
ATOM      5  CB  MET A   1     -18.911   6.695   2.838  1.00  0.00    +0.040 C 
ATOM      6  CG  MET A   1     -20.025   7.640   2.416  1.00  0.00    +0.060 C 
ATOM      7  SD  MET A   1     -19.612   8.586   0.928  1.00  0.00    -0.139 S 
ATOM      8  CE  MET A   1     -18.881   7.306  -0.084  1.00  0.00    +0.069 C 
ATOM      9  N   LYS A   2     -21.359   5.724   4.818  1.00  0.00    -0.197 N 
ATOM     10  CA  LYS A   2     -22.533   4.876   4.998  1.00  0.00    +0.173 C 
ATOM     11  C   LYS A   2     -23.690   5.357   4.136  1.00  0.00    +0.262 C 
ATOM     12  O   LYS A   2     -23.924   6.558   4.019  1.00  0.00    -0.271 OA
ATOM     13  CB  LYS A   2     -22.964   4.849   6.455  1.00  0.00    +0.031 C 
ATOM     14  CG  LYS A   2     -22.011   4.087   7.363  1.00  0.00    +0.009 C 
ATOM     15  CD  LYS A   2     -21.795   2.661   6.886  1.00  0.00    +0.049 C 
ATOM     16  CE  LYS A   2     -21.251   2.623   5.531  1.00  0.00    +0.096 C 
ATOM     17  NZ  LYS A   2     -20.584   1.596   5.009  1.00  0.00    -0.151 NA
ATOM     18  N   LEU A   3     -24.415   4.418   3.532  1.00  0.00    -0.196 N 
ATOM     19  CA  LEU A   3     -25.842   4.600   3.285  1.00  0.00    +0.173 C 
ATOM     20  C   LEU A   3     -26.639   4.430   4.567  1.00  0.00    +0.262 C 
ATOM     21  O   LEU A   3     -26.752   3.322   5.089  1.00  0.00    -0.271 OA
ATOM     22  CB  LEU A   3     -26.338   3.612   2.243  1.00  0.00    +0.031 C 
ATOM     23  CG  LEU A   3     -25.731   3.745   0.845  1.00  0.00    +0.002 C 
ATOM     24  CD1 LEU A   3     -26.440   2.812  -0.129  1.00  0.00    +0.000 C 
ATOM     25  CD2 LEU A   3     -24.342   3.117   0.800  1.00  0.00    +0.000 C 
ATOM     26  N   ALA A   4     -27.192   5.526   5.075  1.00  0.00    -0.196 N 
ATOM     27  CA  ALA A   4     -28.642   5.695   5.125  1.00  0.00    +0.173 C 
ATOM     28  C   ALA A   4     -29.252   5.588   3.737  1.00  0.00    +0.262 C 
ATOM     29  O   ALA A   4     -28.618   5.948   2.747  1.00  0.00    -0.271 OA
ATOM     30  CB  ALA A   4     -29.009   7.037   5.739  1.00  0.00    +0.033 C 
ATOM     31  N   VAL A   5     -30.483   5.091   3.664  1.00  0.00    -0.196 N 
ATOM     32  CA  VAL A   5     -31.586   5.873   3.113  1.00  0.00    +0.173 C 
ATOM     33  C   VAL A   5     -32.177   6.762   4.195  1.00  0.00    +0.262 C 
ATOM     34  O   VAL A   5     -32.149   6.414   5.374  1.00  0.00    -0.271 OA
ATOM     35  CB  VAL A   5     -32.677   4.986   2.534  1.00  0.00    +0.029 C 
ATOM     36  CG1 VAL A   5     -32.073   3.750   1.874  1.00  0.00    +0.002 C 
ATOM     37  CG2 VAL A   5     -33.624   4.517   3.637  1.00  0.00    +0.002 C 
ATOM     38  N   PHE A   6     -32.713   7.912   3.795  1.00  0.00    -0.196 N 
ATOM     39  CA  PHE A   6     -33.560   8.704   4.681  1.00  0.00    +0.177 C 
ATOM     40  C   PHE A   6     -34.859   7.974   4.980  1.00  0.00    +0.262 C 
ATOM     41  O   PHE A   6     -35.584   7.587   4.065  1.00  0.00    -0.271 OA
ATOM     42  CB  PHE A   6     -33.870  10.060   4.067  1.00  0.00    +0.055 C 
ATOM     43  CG  PHE A   6     -33.866  11.188   5.056  1.00  0.00    -0.016 C 
ATOM     44  CD1 PHE A   6     -32.665  11.648   5.582  1.00  0.00    -0.032 C 
ATOM     45  CE1 PHE A   6     -32.662  12.694   6.497  1.00  0.00    +0.025 C 
ATOM     46  CD2 PHE A   6     -35.065  11.774   5.447  1.00  0.00    +0.172 C 
ATOM     47  CE2 PHE A   6     -35.062  12.819   6.362  1.00  0.00    +0.098 C 
ATOM     48  CZ  PHE A   6     -33.861  13.279   6.888  1.00  0.00    +0.024 C 
ATOM     49  N   ALA A   7     -35.156   7.786   6.263  1.00  0.00    -0.196 N 
ATOM     50  CA  ALA A   7     -36.297   8.452   6.885  1.00  0.00    +0.173 C 
ATOM     51  C   ALA A   7     -36.062   9.949   6.996  1.00  0.00    +0.261 C 
ATOM     52  O   ALA A   7     -36.973  10.700   7.340  1.00  0.00    -0.271 OA
ATOM     53  CB  ALA A   7     -36.571   7.878   8.265  1.00  0.00    +0.033 C 
ATOM     54  N   LEU A   8     -34.840  10.385   6.706  1.00  0.00    -0.204 N 
ATOM     55  CA  LEU A   8     -34.507  11.806   6.752  1.00  0.00    +0.112 C 
ATOM     56  C   LEU A   8     -34.892  12.495   5.453  1.00  0.00    +0.056 C 
ATOM     57  O   LEU A   8     -34.601  11.991   4.370  1.00  0.00    -0.219 OA
ATOM     58  CB  LEU A   8     -33.023  12.003   7.010  1.00  0.00    +0.025 C 
ATOM     59  CG  LEU A   8     -32.588  12.003   8.478  1.00  0.00    +0.002 C 
ATOM     60  CD1 LEU A   8     -31.069  11.929   8.579  1.00  0.00    +0.000 C 
ATOM     61  CD2 LEU A   8     -32.931  10.671   9.137  1.00  0.00    +0.000 C 
ATOM     62  N   LEU A   9     -35.548  13.646   5.561  1.00  0.00    -0.132 NA
ATOM     63  H   MET A   1     -17.915   5.241   5.674  1.00  0.00    +0.000 HD
ATOM     64  H   MET A   1     -17.042   6.243   4.671  1.00  0.00    +0.000 HD
ATOM     65  H   LYS A   2     -21.418   6.682   5.037  1.00  0.00    +0.000 HD
ATOM     66  H   LYS A   2     -20.428   0.787   5.548  1.00  0.00    +0.000 HD
ATOM     67  H   LEU A   3     -23.979   3.582   3.248  1.00  0.00    +0.000 HD
ATOM     68  H   ALA A   4     -26.612   6.241   5.426  1.00  0.00    +0.000 HD
ATOM     69  H   VAL A   5     -30.654   4.177   3.987  1.00  0.00    +0.000 HD
ATOM     70  H   PHE A   6     -32.535   8.235   2.883  1.00  0.00    +0.000 HD
ATOM     71  H   ALA A   7     -34.595   7.185   6.805  1.00  0.00    +0.000 HD
ATOM     72  H   LEU A   8     -34.145   9.735   6.454  1.00  0.00    +0.000 HD
ATOM     73  H   LEU A   8     -33.741  12.429   4.470  1.00  0.00    +0.000 HD
ATOM     74  H   LEU A   9     -35.977  14.411   6.080  1.00  0.00    +0.000 HD
ATOM     75  H   LEU A   9     -36.255  13.187   4.987  1.00  0.00    +0.000 HD
ATOM      1  CA  LEU A   9     -35.830  14.473   4.391  1.00  0.00    +0.087 C 
ATOM      2  C   LEU A   9     -34.564  15.147   3.887  1.00  0.00    +0.242 C 
ATOM      3  O   LEU A   9     -33.573  15.235   4.610  1.00  0.00    -0.273 OA
ATOM      4  CB  LEU A   9     -36.873  15.531   4.718  1.00  0.00    +0.010 C 
ATOM      5  CG  LEU A   9     -38.328  15.060   4.731  1.00  0.00    +0.000 C 
ATOM      6  CD1 LEU A   9     -39.214  16.062   4.001  1.00  0.00    +0.000 C 
ATOM      7  CD2 LEU A   9     -38.923  15.197   6.128  1.00  0.00    +0.000 C 
ATOM      8  N   VAL A  10     -34.594  15.622   2.646  1.00  0.00    -0.198 N 
ATOM      9  CA  VAL A  10     -33.415  16.225   2.034  1.00  0.00    +0.173 C 
ATOM     10  C   VAL A  10     -33.703  17.674   1.678  1.00  0.00    +0.262 C 
ATOM     11  O   VAL A  10     -34.649  17.962   0.947  1.00  0.00    -0.271 OA
ATOM     12  CB  VAL A  10     -32.976  15.476   0.786  1.00  0.00    +0.029 C 
ATOM     13  CG1 VAL A  10     -31.515  15.779   0.460  1.00  0.00    +0.002 C 
ATOM     14  CG2 VAL A  10     -33.109  13.969   0.997  1.00  0.00    +0.002 C 
ATOM     15  N   CYS A  11     -32.887  18.589   2.193  1.00  0.00    -0.195 N 
ATOM     16  CA  CYS A  11     -32.848  19.954   1.674  1.00  0.00    +0.184 C 
ATOM     17  C   CYS A  11     -32.104  20.010   0.350  1.00  0.00    +0.263 C 
ATOM     18  O   CYS A  11     -32.002  21.069  -0.266  1.00  0.00    -0.271 OA
ATOM     19  CB  CYS A  11     -32.185  20.891   2.669  1.00  0.00    +0.100 C 
ATOM     20  SG  CYS A  11     -33.087  21.061   4.227  1.00  0.00    -0.080 S 
ATOM     21  N   PHE A  12     -31.582  18.868  -0.089  1.00  0.00    -0.196 N 
ATOM     22  CA  PHE A  12     -30.373  18.849  -0.907  1.00  0.00    +0.177 C 
ATOM     23  C   PHE A  12     -30.665  19.354  -2.310  1.00  0.00    +0.262 C 
ATOM     24  O   PHE A  12     -31.623  18.917  -2.945  1.00  0.00    -0.271 OA
ATOM     25  CB  PHE A  12     -29.792  17.446  -0.984  1.00  0.00    +0.057 C 
ATOM     26  CG  PHE A  12     -28.994  17.053   0.223  1.00  0.00    -0.020 A 
ATOM     27  CD1 PHE A  12     -29.265  17.636   1.455  1.00  0.00    -0.004 A 
ATOM     28  CE1 PHE A  12     -28.525  17.271   2.574  1.00  0.00    -0.000 A 
ATOM     29  CD2 PHE A  12     -27.984  16.105   0.110  1.00  0.00    -0.004 A 
ATOM     30  CE2 PHE A  12     -27.244  15.740   1.229  1.00  0.00    -0.000 A 
ATOM     31  CZ  PHE A  12     -27.514  16.323   2.461  1.00  0.00    -0.000 A 
ATOM     32  N   ALA A  13     -29.838  20.276  -2.797  1.00  0.00    -0.196 N 
ATOM     33  CA  ALA A  13     -29.439  20.274  -4.200  1.00  0.00    +0.173 C 
ATOM     34  C   ALA A  13     -28.519  19.103  -4.506  1.00  0.00    +0.262 C 
ATOM     35  O   ALA A  13     -27.837  18.597  -3.616  1.00  0.00    -0.271 OA
ATOM     36  CB  ALA A  13     -28.740  21.575  -4.565  1.00  0.00    +0.033 C 
ATOM     37  N   GLU A  14     -28.502  18.671  -5.763  1.00  0.00    -0.196 N 
ATOM     38  CA  GLU A  14     -27.423  17.821  -6.260  1.00  0.00    +0.173 C 
ATOM     39  C   GLU A  14     -26.089  18.546  -6.214  1.00  0.00    +0.262 C 
ATOM     40  O   GLU A  14     -25.978  19.679  -6.681  1.00  0.00    -0.271 OA
ATOM     41  CB  GLU A  14     -27.703  17.366  -7.683  1.00  0.00    +0.043 C 
ATOM     42  CG  GLU A  14     -26.484  17.403  -8.590  1.00  0.00    +0.116 C 
ATOM     43  CD  GLU A  14     -26.797  17.043 -10.034  1.00  0.00    +0.365 C 
ATOM     44  OE1 GLU A  14     -27.990  17.023 -10.408  1.00  0.00    -0.246 OA
ATOM     45  OE2 GLU A  14     -25.842  16.778 -10.794  1.00  0.00    -0.246 OA
ATOM     46  N   SER A  15     -25.074  17.895  -5.653  1.00  0.00    -0.194 N 
ATOM     47  CA  SER A  15     -24.856  17.925  -4.209  1.00  0.00    +0.205 C 
ATOM     48  C   SER A  15     -24.744  19.352  -3.698  1.00  0.00    +0.264 C 
ATOM     49  O   SER A  15     -24.915  20.303  -4.460  1.00  0.00    -0.271 OA
ATOM     50  CB  SER A  15     -23.600  17.154  -3.840  1.00  0.00    +0.213 C 
ATOM     51  OG  SER A  15     -22.657  18.002  -3.208  1.00  0.00    -0.218 OA
ATOM     52  N   SER A  16     -24.456  19.503  -2.409  1.00  0.00    -0.194 N 
ATOM     53  CA  SER A  16     -24.320  20.827  -1.809  1.00  0.00    +0.205 C 
ATOM     54  C   SER A  16     -22.995  21.471  -2.188  1.00  0.00    +0.264 C 
ATOM     55  O   SER A  16     -22.705  22.593  -1.777  1.00  0.00    -0.271 OA
ATOM     56  CB  SER A  16     -24.429  20.746  -0.296  1.00  0.00    +0.213 C 
ATOM     57  OG  SER A  16     -23.528  19.782   0.222  1.00  0.00    -0.218 OA
ATOM     58  N   ASP A  17     -22.190  20.759  -2.973  1.00  0.00    -0.196 N 
ATOM     59  CA  ASP A  17     -20.738  20.830  -2.838  1.00  0.00    +0.184 C 
ATOM     60  C   ASP A  17     -20.172  21.992  -3.638  1.00  0.00    +0.262 C 
ATOM     61  O   ASP A  17     -19.007  22.354  -3.473  1.00  0.00    -0.271 OA
ATOM     62  CB  ASP A  17     -20.086  19.536  -3.294  1.00  0.00    +0.145 C 
ATOM     63  CG  ASP A  17     -20.605  18.314  -2.551  1.00  0.00    +0.367 C 
ATOM     64  OD1 ASP A  17     -20.103  17.196  -2.792  1.00  0.00    -0.246 OA
ATOM     65  OD2 ASP A  17     -21.526  18.475  -1.721  1.00  0.00    -0.246 OA
ATOM     66  N   LEU A  18     -20.994  22.577  -4.504  1.00  0.00    -0.196 N 
ATOM     67  CA  LEU A  18     -20.833  22.400  -5.944  1.00  0.00    +0.173 C 
ATOM     68  C   LEU A  18     -20.597  23.735  -6.631  1.00  0.00    +0.262 C 
ATOM     69  O   LEU A  18     -21.545  24.422  -7.008  1.00  0.00    -0.271 OA
ATOM     70  CB  LEU A  18     -22.057  21.730  -6.544  1.00  0.00    +0.031 C 
ATOM     71  CG  LEU A  18     -21.974  21.385  -8.034  1.00  0.00    +0.002 C 
ATOM     72  CD1 LEU A  18     -22.343  19.924  -8.258  1.00  0.00    +0.000 C 
ATOM     73  CD2 LEU A  18     -20.521  21.331  -8.490  1.00  0.00    +0.000 C 
ATOM     74  N   VAL A  19     -19.329  24.105  -6.794  1.00  0.00    -0.196 N 
ATOM     75  CA  VAL A  19     -18.856  24.660  -8.059  1.00  0.00    +0.176 C 
ATOM     76  C   VAL A  19     -18.809  23.567  -9.114  1.00  0.00    +0.262 C 
ATOM     77  O   VAL A  19     -18.871  22.382  -8.791  1.00  0.00    -0.271 OA
ATOM     78  CB  VAL A  19     -17.481  25.293  -7.922  1.00  0.00    +0.073 C 
ATOM     79  CG1 VAL A  19     -17.447  26.661  -8.598  1.00  0.00    +0.211 C 
ATOM     80  CG2 VAL A  19     -17.129  25.487  -6.449  1.00  0.00    +0.006 C 
ATOM     81  N   ARG A  20     -18.697  23.964 -10.380  1.00  0.00    -0.196 N 
ATOM     82  CA  ARG A  20     -17.666  23.421 -11.259  1.00  0.00    +0.173 C 
ATOM     83  C   ARG A  20     -16.285  23.895 -10.834  1.00  0.00    +0.262 C 
ATOM     84  O   ARG A  20     -15.461  23.097 -10.389  1.00  0.00    -0.271 OA
ATOM     85  CB  ARG A  20     -17.919  23.823 -12.702  1.00  0.00    +0.033 C 
ATOM     86  CG  ARG A  20     -16.927  23.228 -13.689  1.00  0.00    +0.029 C 
ATOM     87  CD  ARG A  20     -17.611  22.318 -14.696  1.00  0.00    +0.129 C 
ATOM     88  NE  ARG A  20     -17.231  22.649 -16.067  1.00  0.00    -0.234 NA
ATOM     89  CZ  ARG A  20     -17.404  21.852 -17.116  1.00  0.00    +0.284 C 
ATOM     90  NH1 ARG A  20     -17.935  20.642 -16.967  1.00  0.00    -0.104 N 
ATOM     91  NH2 ARG A  20     -17.044  22.269 -18.327  1.00  0.00    -0.104 N 
ATOM     92  N   ARG A  21     -16.032  25.192 -10.970  1.00  0.00    -0.194 N 
ATOM     93  CA  ARG A  21     -15.056  25.870 -10.120  1.00  0.00    +0.194 C 
ATOM     94  C   ARG A  21     -15.746  26.802  -9.138  1.00  0.00    +0.337 C 
ATOM     95  O   ARG A  21     -15.228  27.873  -8.825  1.00  0.00    -0.248 OA
ATOM     96  CB  ARG A  21     -14.062  26.657 -10.957  1.00  0.00    +0.035 C 
ATOM     97  CG  ARG A  21     -12.984  25.801 -11.599  1.00  0.00    +0.029 C 
ATOM     98  CD  ARG A  21     -13.472  25.144 -12.880  1.00  0.00    +0.129 C 
ATOM     99  NE  ARG A  21     -12.514  24.165 -13.384  1.00  0.00    -0.234 NA
ATOM    100  CZ  ARG A  21     -11.786  24.314 -14.487  1.00  0.00    +0.284 C 
ATOM    101  NH1 ARG A  21     -10.591  24.897 -14.439  1.00  0.00    -0.104 N 
ATOM    102  NH2 ARG A  21     -12.259  23.877 -15.651  1.00  0.00    -0.104 N 
ATOM    103  OXT ARG A  21     -16.830  26.499  -8.643  1.00  0.00    -0.447 OA
ATOM    104  H   VAL A  10     -35.430  15.567   2.128  1.00  0.00    +0.000 HD
ATOM    105  H   CYS A  11     -32.296  18.341   2.941  1.00  0.00    +0.000 HD
ATOM    106  H   CYS A  11     -33.149  19.855   4.849  1.00  0.00    +0.000 HD
ATOM    107  H   PHE A  12     -32.021  18.018   0.142  1.00  0.00    +0.000 HD
ATOM    108  H   ALA A  13     -29.489  20.974  -2.198  1.00  0.00    +0.000 HD
ATOM    109  H   GLU A  14     -29.231  18.930  -6.372  1.00  0.00    +0.000 HD
ATOM    110  H   GLU A  14     -24.963  16.806 -10.469  1.00  0.00    +0.000 HD
ATOM    111  H   SER A  15     -24.456  17.383  -6.223  1.00  0.00    +0.000 HD
ATOM    112  H   SER A  15     -23.042  18.364  -2.396  1.00  0.00    +0.000 HD
ATOM    113  H   SER A  16     -24.331  18.705  -1.846  1.00  0.00    +0.000 HD
ATOM    114  H   SER A  16     -22.619  20.034  -0.005  1.00  0.00    +0.000 HD
ATOM    115  H   ASP A  17     -22.582  20.172  -3.660  1.00  0.00    +0.000 HD
ATOM    116  H   ASP A  17     -19.414  17.118  -3.422  1.00  0.00    +0.000 HD
ATOM    117  H   LEU A  18     -21.727  23.142  -4.167  1.00  0.00    +0.000 HD
ATOM    118  H   VAL A  19     -18.697  24.001  -6.046  1.00  0.00    +0.000 HD
ATOM    119  H   ARG A  20     -19.324  24.638 -10.730  1.00  0.00    +0.000 HD
ATOM    120  H   ARG A  20     -18.204  20.329 -16.074  1.00  0.00    +0.000 HD
ATOM    121  H   ARG A  20     -18.059  20.059 -17.752  1.00  0.00    +0.000 HD
ATOM    122  H   ARG A  20     -17.170  21.682 -19.107  1.00  0.00    +0.000 HD
ATOM    123  H   ARG A  20     -16.650  23.164 -18.442  1.00  0.00    +0.000 HD
ATOM    124  H   ARG A  21     -16.511  25.708 -11.659  1.00  0.00    +0.000 HD
ATOM    125  H   ARG A  21     -10.236  25.222 -13.580  1.00  0.00    +0.000 HD
ATOM    126  H   ARG A  21     -10.061  25.003 -15.262  1.00  0.00    +0.000 HD
ATOM    127  H   ARG A  21     -13.143  23.445 -15.692  1.00  0.00    +0.000 HD
ATOM    128  H   ARG A  21     -11.726  23.986 -16.471  1.00  0.00    +0.000 HD
ENDROOT
TORSDOF 0
