REMARK  Name = /var/folders/yp/yjbh3p597675h2qddgqr02y00000gn/T/tmpugf6rc6x.pdb
REMARK     285 UNITARY VALUES FOR THE UNIT CELL AUTOMATICALLY SET
REMARK     285 BY MDANALYSIS PDBWRITER BECAUSE UNIT CELL INFORMATION
REMARK     285 WAS MISSING.
REMARK     285 PROTEIN DATA BANK CONVENTIONS REQUIRE THAT
REMARK     285 CRYST1 RECORD IS INCLUDED, BUT THE VALUES ON
REMARK     285 THIS RECORD ARE MEANINGLESS.
REMARK     285 UNITARY VALUES FOR THE UNIT CELL AUTOMATICALLY SET
REMARK     285 BY MDANALYSIS PDBWRITER BECAUSE UNIT CELL INFORMATION
REMARK     285 WAS MISSING.
REMARK     285 PROTEIN DATA BANK CONVENTIONS REQUIRE THAT
REMARK     285 CRYST1 RECORD IS INCLUDED, BUT THE VALUES ON
REMARK     285 THIS RECORD ARE MEANINGLESS.
REMARK                            x       y       z     vdW  Elec       q    Type
REMARK                         _______ _______ _______ _____ _____    ______ ____
ROOT
ATOM      1  N   MET A   1      25.888   4.927  -0.762  1.00  0.00    -0.123 NA
ATOM      2  CA  MET A   1      25.319   4.994   0.581  1.00  0.00    +0.170 C 
ATOM      3  C   MET A   1      24.578   3.711   0.922  1.00  0.00    +0.259 C 
ATOM      4  O   MET A   1      24.002   3.071   0.044  1.00  0.00    -0.272 OA
ATOM      5  CB  MET A   1      24.373   6.176   0.712  1.00  0.00    +0.040 C 
ATOM      6  CG  MET A   1      23.832   6.373   2.118  1.00  0.00    +0.060 C 
ATOM      7  SD  MET A   1      22.045   6.658   2.147  1.00  0.00    -0.139 S 
ATOM      8  CE  MET A   1      21.954   8.254   1.345  1.00  0.00    +0.069 C 
ATOM      9  N   LYS A   2      24.592   3.335   2.198  1.00  0.00    -0.197 N 
ATOM     10  CA  LYS A   2      24.186   1.991   2.598  1.00  0.00    +0.173 C 
ATOM     11  C   LYS A   2      23.016   2.039   3.568  1.00  0.00    +0.262 C 
ATOM     12  O   LYS A   2      23.148   2.548   4.679  1.00  0.00    -0.271 OA
ATOM     13  CB  LYS A   2      25.345   1.244   3.236  1.00  0.00    +0.031 C 
ATOM     14  CG  LYS A   2      25.193  -0.268   3.208  1.00  0.00    +0.009 C 
ATOM     15  CD  LYS A   2      26.276  -0.960   4.019  1.00  0.00    +0.049 C 
ATOM     16  CE  LYS A   2      27.601  -0.430   3.712  1.00  0.00    +0.096 C 
ATOM     17  NZ  LYS A   2      28.745  -1.062   3.957  1.00  0.00    -0.151 NA
ATOM     18  N   LEU A   3      21.872   1.508   3.148  1.00  0.00    -0.196 N 
ATOM     19  CA  LEU A   3      21.007   0.752   4.050  1.00  0.00    +0.173 C 
ATOM     20  C   LEU A   3      21.649  -0.572   4.432  1.00  0.00    +0.262 C 
ATOM     21  O   LEU A   3      22.361  -1.176   3.629  1.00  0.00    -0.271 OA
ATOM     22  CB  LEU A   3      19.654   0.493   3.409  1.00  0.00    +0.031 C 
ATOM     23  CG  LEU A   3      18.764   1.718   3.198  1.00  0.00    +0.002 C 
ATOM     24  CD1 LEU A   3      17.309   1.293   3.033  1.00  0.00    +0.000 C 
ATOM     25  CD2 LEU A   3      18.989   2.313   1.812  1.00  0.00    +0.000 C 
ATOM     26  N   ALA A   4      21.400  -1.024   5.657  1.00  0.00    -0.196 N 
ATOM     27  CA  ALA A   4      21.358  -2.454   5.946  1.00  0.00    +0.173 C 
ATOM     28  C   ALA A   4      20.259  -3.141   5.153  1.00  0.00    +0.262 C 
ATOM     29  O   ALA A   4      19.152  -2.618   5.036  1.00  0.00    -0.271 OA
ATOM     30  CB  ALA A   4      21.141  -2.699   7.431  1.00  0.00    +0.033 C 
ATOM     31  N   VAL A   5      20.562  -4.315   4.605  1.00  0.00    -0.196 N 
ATOM     32  CA  VAL A   5      19.527  -5.287   4.272  1.00  0.00    +0.173 C 
ATOM     33  C   VAL A   5      18.998  -5.933   5.543  1.00  0.00    +0.262 C 
ATOM     34  O   VAL A   5      17.818  -6.264   5.632  1.00  0.00    -0.271 OA
ATOM     35  CB  VAL A   5      20.041  -6.366   3.333  1.00  0.00    +0.029 C 
ATOM     36  CG1 VAL A   5      18.957  -7.404   3.054  1.00  0.00    +0.002 C 
ATOM     37  CG2 VAL A   5      20.462  -5.753   1.999  1.00  0.00    +0.002 C 
ATOM     38  N   PHE A   6      19.873  -6.114   6.527  1.00  0.00    -0.196 N 
ATOM     39  CA  PHE A   6      19.996  -7.398   7.208  1.00  0.00    +0.173 C 
ATOM     40  C   PHE A   6      18.866  -7.593   8.206  1.00  0.00    +0.261 C 
ATOM     41  O   PHE A   6      18.693  -6.787   9.118  1.00  0.00    -0.271 OA
ATOM     42  CB  PHE A   6      21.331  -7.504   7.930  1.00  0.00    +0.033 C 
ATOM     43  CG  PHE A   6      22.460  -7.958   7.052  1.00  0.00    +0.024 C 
ATOM     44  CD1 PHE A   6      23.178  -7.030   6.308  1.00  0.00    +0.026 C 
ATOM     45  CE1 PHE A   6      24.223  -7.450   5.495  1.00  0.00    -0.026 C 
ATOM     46  CD2 PHE A   6      22.790  -9.307   6.985  1.00  0.00    -0.026 C 
ATOM     47  CE2 PHE A   6      23.835  -9.727   6.172  1.00  0.00    -0.005 C 
ATOM     48  CZ  PHE A   6      24.552  -8.799   5.426  1.00  0.00    -0.005 C 
ATOM     49  N   ALA A   7      18.093  -8.661   8.030  1.00  0.00    -0.202 N 
ATOM     50  CA  ALA A   7      17.918  -9.655   9.085  1.00  0.00    +0.140 C 
ATOM     51  C   ALA A   7      19.207 -10.423   9.331  1.00  0.00    +0.225 C 
ATOM     52  O   ALA A   7      19.371 -11.045  10.380  1.00  0.00    -0.204 OA
ATOM     53  CB  ALA A   7      16.806 -10.629   8.730  1.00  0.00    +0.028 C 
ATOM     54  N   LEU A   8      20.120 -10.380   8.366  1.00  0.00    -0.175 NA
ATOM     55  CA  LEU A   8      21.002 -11.513   8.102  1.00  0.00    +0.137 C 
ATOM     56  C   LEU A   8      22.183 -11.517   9.059  1.00  0.00    +0.067 C 
ATOM     57  O   LEU A   8      22.775 -12.564   9.315  1.00  0.00    -0.365 OA
ATOM     58  CB  LEU A   8      21.510 -11.479   6.669  1.00  0.00    +0.034 C 
ATOM     59  CG  LEU A   8      20.558 -10.880   5.632  1.00  0.00    +0.003 C 
ATOM     60  CD1 LEU A   8      20.703 -11.607   4.301  1.00  0.00    +0.000 C 
ATOM     61  CD2 LEU A   8      21.041  -9.500   5.197  1.00  0.00    +0.000 C 
ATOM     62  N   LEU A   9      22.525 -10.345   9.588  1.00  0.00    -0.216 NA
ATOM     63  CA  LEU A   9      23.722  -9.635   9.148  1.00  0.00    +0.206 C 
ATOM     64  C   LEU A   9      24.979 -10.385   9.558  1.00  0.00    +0.169 C 
ATOM     65  O   LEU A   9      25.070 -10.888  10.678  1.00  0.00    -0.382 OA
ATOM     66  CB  LEU A   9      23.758  -8.230   9.729  1.00  0.00    +0.028 C 
ATOM     67  CG  LEU A   9      23.437  -7.091   8.759  1.00  0.00    +0.005 C 
ATOM     68  CD1 LEU A   9      21.993  -6.638   8.936  1.00  0.00    +0.003 C 
ATOM     69  CD2 LEU A   9      23.343  -7.617   7.330  1.00  0.00    +0.009 C 
ATOM     70  N   VAL A  10      25.950 -10.463   8.653  1.00  0.00    -0.187 NA
ATOM     71  CA  VAL A  10      27.348 -10.268   9.020  1.00  0.00    +0.153 C 
ATOM     72  C   VAL A  10      27.984  -9.238   8.099  1.00  0.00    +0.258 C 
ATOM     73  O   VAL A  10      28.346  -9.552   6.967  1.00  0.00    -0.272 OA
ATOM     74  CB  VAL A  10      28.139 -11.565   8.952  1.00  0.00    +0.025 C 
ATOM     75  CG1 VAL A  10      29.623 -11.306   9.199  1.00  0.00    +0.002 C 
ATOM     76  CG2 VAL A  10      27.648 -12.544  10.014  1.00  0.00    +0.002 C 
ATOM     77  N   CYS A  11      28.117  -8.007   8.585  1.00  0.00    -0.196 N 
ATOM     78  CA  CYS A  11      28.085  -7.748  10.021  1.00  0.00    +0.184 C 
ATOM     79  C   CYS A  11      26.659  -7.780  10.546  1.00  0.00    +0.262 C 
ATOM     80  O   CYS A  11      26.428  -7.583  11.739  1.00  0.00    -0.271 OA
ATOM     81  CB  CYS A  11      28.714  -6.400  10.338  1.00  0.00    +0.100 C 
ATOM     82  SG  CYS A  11      30.500  -6.472  10.608  1.00  0.00    -0.080 S 
ATOM     83  N   PHE A  12      25.702  -8.026   9.657  1.00  0.00    -0.204 N 
ATOM     84  CA  PHE A  12      24.396  -8.533  10.067  1.00  0.00    +0.116 C 
ATOM     85  C   PHE A  12      24.111  -9.877   9.417  1.00  0.00    +0.102 C 
ATOM     86  O   PHE A  12      24.299 -10.039   8.212  1.00  0.00    -0.207 OA
ATOM     87  CB  PHE A  12      23.294  -7.550   9.705  1.00  0.00    +0.024 C 
ATOM     88  CG  PHE A  12      23.068  -6.486  10.737  1.00  0.00    -0.022 A 
ATOM     89  CD1 PHE A  12      22.074  -6.648  11.695  1.00  0.00    -0.004 A 
ATOM     90  CE1 PHE A  12      21.864  -5.661  12.652  1.00  0.00    -0.000 A 
ATOM     91  CD2 PHE A  12      23.851  -5.337  10.734  1.00  0.00    -0.004 A 
ATOM     92  CE2 PHE A  12      23.642  -4.352  11.691  1.00  0.00    -0.000 A 
ATOM     93  CZ  PHE A  12      22.649  -4.514  12.650  1.00  0.00    -0.000 A 
ATOM     94  N   ALA A  13      23.659 -10.841  10.213  1.00  0.00    +0.458 N 
ATOM     95  CA  ALA A  13      22.825 -11.924   9.699  1.00  0.00    +0.134 C 
ATOM     96  C   ALA A  13      21.353 -11.549   9.745  1.00  0.00    +0.215 C 
ATOM     97  O   ALA A  13      20.875 -11.018  10.747  1.00  0.00    -0.205 OA
ATOM     98  CB  ALA A  13      23.050 -13.201  10.490  1.00  0.00    +0.172 C 
ATOM     99  N   GLU A  14      20.632 -11.828   8.664  1.00  0.00    -0.227 NA
ATOM    100  CA  GLU A  14      19.173 -11.847   8.705  1.00  0.00    +0.161 C 
ATOM    101  C   GLU A  14      18.662 -13.050   9.483  1.00  0.00    +0.259 C 
ATOM    102  O   GLU A  14      19.373 -14.041   9.640  1.00  0.00    -0.272 OA
ATOM    103  CB  GLU A  14      18.590 -11.865   7.302  1.00  0.00    +0.039 C 
ATOM    104  CG  GLU A  14      17.099 -12.159   7.260  1.00  0.00    +0.116 C 
ATOM    105  CD  GLU A  14      16.640 -12.749   5.937  1.00  0.00    +0.365 C 
ATOM    106  OE1 GLU A  14      17.497 -13.059   5.081  1.00  0.00    -0.246 OA
ATOM    107  OE2 GLU A  14      15.412 -12.902   5.756  1.00  0.00    -0.246 OA
ATOM    108  N   SER A  15      17.427 -12.964   9.971  1.00  0.00    -0.194 N 
ATOM    109  CA  SER A  15      16.601 -14.152  10.158  1.00  0.00    +0.205 C 
ATOM    110  C   SER A  15      16.261 -14.805   8.826  1.00  0.00    +0.264 C 
ATOM    111  O   SER A  15      16.326 -14.159   7.782  1.00  0.00    -0.271 OA
ATOM    112  CB  SER A  15      15.316 -13.802  10.892  1.00  0.00    +0.213 C 
ATOM    113  OG  SER A  15      14.335 -13.323   9.988  1.00  0.00    -0.218 OA
ATOM    114  N   SER A  16      15.899 -16.083   8.864  1.00  0.00    -0.194 N 
ATOM    115  CA  SER A  16      16.427 -16.992   9.878  1.00  0.00    +0.205 C 
ATOM    116  C   SER A  16      17.884 -17.333   9.609  1.00  0.00    +0.264 C 
ATOM    117  O   SER A  16      18.493 -18.104  10.351  1.00  0.00    -0.271 OA
ATOM    118  CB  SER A  16      15.608 -18.272   9.931  1.00  0.00    +0.213 C 
ATOM    119  OG  SER A  16      15.685 -18.968   8.700  1.00  0.00    -0.218 OA
ATOM    120  N   ASP A  17      18.445 -16.760   8.548  1.00  0.00    -0.196 N 
ATOM    121  CA  ASP A  17      19.581 -17.374   7.864  1.00  0.00    +0.184 C 
ATOM    122  C   ASP A  17      20.897 -16.843   8.411  1.00  0.00    +0.262 C 
ATOM    123  O   ASP A  17      21.771 -16.439   7.646  1.00  0.00    -0.271 OA
ATOM    124  CB  ASP A  17      19.514 -17.123   6.367  1.00  0.00    +0.145 C 
ATOM    125  CG  ASP A  17      18.319 -17.789   5.704  1.00  0.00    +0.367 C 
ATOM    126  OD1 ASP A  17      17.709 -18.694   6.313  1.00  0.00    -0.246 OA
ATOM    127  OD2 ASP A  17      17.986 -17.402   4.563  1.00  0.00    -0.246 OA
ATOM    128  N   LEU A  18      21.038 -16.846   9.733  1.00  0.00    -0.196 N 
ATOM    129  CA  LEU A  18      22.236 -17.386  10.368  1.00  0.00    +0.173 C 
ATOM    130  C   LEU A  18      22.005 -18.816  10.831  1.00  0.00    +0.262 C 
ATOM    131  O   LEU A  18      21.072 -19.087  11.582  1.00  0.00    -0.271 OA
ATOM    132  CB  LEU A  18      22.651 -16.530  11.554  1.00  0.00    +0.031 C 
ATOM    133  CG  LEU A  18      24.089 -16.710  12.043  1.00  0.00    +0.002 C 
ATOM    134  CD1 LEU A  18      24.101 -17.375  13.413  1.00  0.00    +0.000 C 
ATOM    135  CD2 LEU A  18      24.693 -15.365  12.432  1.00  0.00    +0.000 C 
ATOM    136  N   VAL A  19      22.856 -19.734  10.380  1.00  0.00    -0.196 N 
ATOM    137  CA  VAL A  19      23.747 -20.454  11.285  1.00  0.00    +0.173 C 
ATOM    138  C   VAL A  19      25.195 -20.168  10.916  1.00  0.00    +0.262 C 
ATOM    139  O   VAL A  19      25.577 -20.283   9.753  1.00  0.00    -0.271 OA
ATOM    140  CB  VAL A  19      23.501 -21.953  11.251  1.00  0.00    +0.029 C 
ATOM    141  CG1 VAL A  19      24.232 -22.646  12.398  1.00  0.00    +0.002 C 
ATOM    142  CG2 VAL A  19      22.009 -22.250  11.393  1.00  0.00    +0.002 C 
ATOM    143  N   ARG A  20      26.001 -19.798  11.907  1.00  0.00    -0.196 N 
ATOM    144  CA  ARG A  20      27.207 -20.555  12.229  1.00  0.00    +0.173 C 
ATOM    145  C   ARG A  20      26.860 -21.844  12.957  1.00  0.00    +0.262 C 
ATOM    146  O   ARG A  20      27.566 -22.843  12.830  1.00  0.00    -0.271 OA
ATOM    147  CB  ARG A  20      28.155 -19.729  13.083  1.00  0.00    +0.033 C 
ATOM    148  CG  ARG A  20      27.567 -19.306  14.419  1.00  0.00    +0.026 C 
ATOM    149  CD  ARG A  20      28.371 -18.188  15.061  1.00  0.00    +0.115 C 
ATOM    150  NE  ARG A  20      28.552 -18.407  16.492  1.00  0.00    -0.204 N 
ATOM    151  CZ  ARG A  20      27.830 -17.826  17.447  1.00  0.00    +0.259 C 
ATOM    152  NH1 ARG A  20      26.647 -18.324  17.797  1.00  0.00    -0.107 N 
ATOM    153  NH2 ARG A  20      28.295 -16.738  18.055  1.00  0.00    -0.110 NA
ATOM    154  N   ARG A  21      25.773 -21.823  13.724  1.00  0.00    -0.194 N 
ATOM    155  CA  ARG A  21      25.736 -22.511  15.011  1.00  0.00    +0.198 C 
ATOM    156  C   ARG A  21      24.854 -23.747  14.943  1.00  0.00    +0.384 C 
ATOM    157  O   ARG A  21      24.253 -24.141  15.940  1.00  0.00    -0.244 OA
ATOM    158  CB  ARG A  21      25.228 -21.586  16.105  1.00  0.00    +0.035 C 
ATOM    159  CG  ARG A  21      26.052 -20.319  16.270  1.00  0.00    +0.026 C 
ATOM    160  CD  ARG A  21      25.347 -19.296  17.144  1.00  0.00    +0.117 C 
ATOM    161  NE  ARG A  21      25.999 -19.154  18.443  1.00  0.00    -0.184 N 
ATOM    162  CZ  ARG A  21      25.383 -18.792  19.565  1.00  0.00    +0.275 C 
ATOM    163  NH1 ARG A  21      24.055 -18.729  19.621  1.00  0.00    -0.107 N 
ATOM    164  NH2 ARG A  21      26.104 -18.489  20.641  1.00  0.00    -0.107 NA
ATOM    165  OXT ARG A  21      24.731 -24.368  13.888  1.00  0.00    -0.244 OA
ATOM    166  H   MET A   1      26.379   5.798  -0.968  1.00  0.00    +0.000 HD
ATOM    167  H   MET A   1      25.139   4.791  -1.442  1.00  0.00    +0.000 HD
ATOM    168  H   LYS A   2      24.882   3.976   2.887  1.00  0.00    +0.000 HD
ATOM    169  H   LYS A   2      28.736  -1.953   4.375  1.00  0.00    +0.000 HD
ATOM    170  H   LEU A   3      21.602   1.627   2.209  1.00  0.00    +0.000 HD
ATOM    171  H   ALA A   4      21.241  -0.381   6.385  1.00  0.00    +0.000 HD
ATOM    172  H   VAL A   5      21.505  -4.532   4.421  1.00  0.00    +0.000 HD
ATOM    173  H   PHE A   6      20.451  -5.365   6.801  1.00  0.00    +0.000 HD
ATOM    174  H   ALA A   7      17.628  -8.784   7.171  1.00  0.00    +0.000 HD
ATOM    175  H   LEU A   8      20.725  -9.586   8.578  1.00  0.00    +0.000 HD
ATOM    176  H   LEU A   9      21.840  -9.841  10.153  1.00  0.00    +0.000 HD
ATOM    177  H   VAL A  10      25.738  -9.762   7.942  1.00  0.00    +0.000 HD
ATOM    178  H   CYS A  11      28.241  -7.254   7.962  1.00  0.00    +0.000 HD
ATOM    179  H   CYS A  11      31.113  -6.901   9.472  1.00  0.00    +0.000 HD
ATOM    180  H   PHE A  12      25.878  -7.862   8.703  1.00  0.00    +0.000 HD
ATOM    181  H   PHE A  12      24.528 -10.972   8.351  1.00  0.00    +0.000 HD
ATOM    182  H   GLU A  14      18.407 -12.927   5.260  1.00  0.00    +0.000 HD
ATOM    183  H   SER A  15      17.063 -12.081  10.211  1.00  0.00    +0.000 HD
ATOM    184  H   SER A  15      14.134 -14.011   9.334  1.00  0.00    +0.000 HD
ATOM    185  H   SER A  16      15.263 -16.424   8.196  1.00  0.00    +0.000 HD
ATOM    186  H   SER A  16      15.332 -18.408   7.990  1.00  0.00    +0.000 HD
ATOM    187  H   ASP A  17      18.088 -15.906   8.216  1.00  0.00    +0.000 HD
ATOM    188  H   ASP A  17      18.470 -16.720   4.140  1.00  0.00    +0.000 HD
ATOM    189  H   LEU A  18      20.320 -16.476  10.295  1.00  0.00    +0.000 HD
ATOM    190  H   VAL A  19      22.887 -19.931   9.416  1.00  0.00    +0.000 HD
ATOM    191  H   ARG A  20      25.779 -18.997  12.435  1.00  0.00    +0.000 HD
ATOM    192  H   ARG A  20      29.261 -19.030  16.773  1.00  0.00    +0.000 HD
ATOM    193  H   ARG A  20      25.979 -17.778  17.323  1.00  0.00    +0.000 HD
ATOM    194  H   ARG A  20      27.765 -16.304  18.762  1.00  0.00    +0.000 HD
ATOM    195  H   ARG A  21      24.976 -21.334  13.417  1.00  0.00    +0.000 HD
ATOM    196  H   ARG A  21      23.610 -18.460  20.456  1.00  0.00    +0.000 HD
ATOM    197  H   ARG A  21      23.518 -18.951  18.826  1.00  0.00    +0.000 HD
ATOM    198  H   ARG A  21      25.654 -18.220  21.475  1.00  0.00    +0.000 HD
ATOM    199  H   ARG A  21      25.183 -24.081  13.120  1.00  0.00    +0.000 HD
ENDROOT
TORSDOF 0
