REMARK  Name = /var/folders/yp/yjbh3p597675h2qddgqr02y00000gn/T/tmpmx2xwrlw.pdb
REMARK     285 UNITARY VALUES FOR THE UNIT CELL AUTOMATICALLY SET
REMARK     285 BY MDANALYSIS PDBWRITER BECAUSE UNIT CELL INFORMATION
REMARK     285 WAS MISSING.
REMARK     285 PROTEIN DATA BANK CONVENTIONS REQUIRE THAT
REMARK     285 CRYST1 RECORD IS INCLUDED, BUT THE VALUES ON
REMARK     285 THIS RECORD ARE MEANINGLESS.
REMARK     285 UNITARY VALUES FOR THE UNIT CELL AUTOMATICALLY SET
REMARK     285 BY MDANALYSIS PDBWRITER BECAUSE UNIT CELL INFORMATION
REMARK     285 WAS MISSING.
REMARK     285 PROTEIN DATA BANK CONVENTIONS REQUIRE THAT
REMARK     285 CRYST1 RECORD IS INCLUDED, BUT THE VALUES ON
REMARK     285 THIS RECORD ARE MEANINGLESS.
REMARK                            x       y       z     vdW  Elec       q    Type
REMARK                         _______ _______ _______ _____ _____    ______ ____
REMARK  Name = /var/folders/yp/yjbh3p597675h2qddgqr02y00000gn/T/tmpmx2xwrlw.pdb
REMARK     285 UNITARY VALUES FOR THE UNIT CELL AUTOMATICALLY SET
REMARK     285 BY MDANALYSIS PDBWRITER BECAUSE UNIT CELL INFORMATION
REMARK     285 WAS MISSING.
REMARK     285 PROTEIN DATA BANK CONVENTIONS REQUIRE THAT
REMARK     285 CRYST1 RECORD IS INCLUDED, BUT THE VALUES ON
REMARK     285 THIS RECORD ARE MEANINGLESS.
REMARK     285 UNITARY VALUES FOR THE UNIT CELL AUTOMATICALLY SET
REMARK     285 BY MDANALYSIS PDBWRITER BECAUSE UNIT CELL INFORMATION
REMARK     285 WAS MISSING.
REMARK     285 PROTEIN DATA BANK CONVENTIONS REQUIRE THAT
REMARK     285 CRYST1 RECORD IS INCLUDED, BUT THE VALUES ON
REMARK     285 THIS RECORD ARE MEANINGLESS.
REMARK                            x       y       z     vdW  Elec       q    Type
REMARK                         _______ _______ _______ _____ _____    ______ ____
REMARK  Name = /var/folders/yp/yjbh3p597675h2qddgqr02y00000gn/T/tmpmx2xwrlw.pdb
REMARK     285 UNITARY VALUES FOR THE UNIT CELL AUTOMATICALLY SET
REMARK     285 BY MDANALYSIS PDBWRITER BECAUSE UNIT CELL INFORMATION
REMARK     285 WAS MISSING.
REMARK     285 PROTEIN DATA BANK CONVENTIONS REQUIRE THAT
REMARK     285 CRYST1 RECORD IS INCLUDED, BUT THE VALUES ON
REMARK     285 THIS RECORD ARE MEANINGLESS.
REMARK     285 UNITARY VALUES FOR THE UNIT CELL AUTOMATICALLY SET
REMARK     285 BY MDANALYSIS PDBWRITER BECAUSE UNIT CELL INFORMATION
REMARK     285 WAS MISSING.
REMARK     285 PROTEIN DATA BANK CONVENTIONS REQUIRE THAT
REMARK     285 CRYST1 RECORD IS INCLUDED, BUT THE VALUES ON
REMARK     285 THIS RECORD ARE MEANINGLESS.
REMARK                            x       y       z     vdW  Elec       q    Type
REMARK                         _______ _______ _______ _____ _____    ______ ____
REMARK  Name = /var/folders/yp/yjbh3p597675h2qddgqr02y00000gn/T/tmpmx2xwrlw.pdb
REMARK     285 UNITARY VALUES FOR THE UNIT CELL AUTOMATICALLY SET
REMARK     285 BY MDANALYSIS PDBWRITER BECAUSE UNIT CELL INFORMATION
REMARK     285 WAS MISSING.
REMARK     285 PROTEIN DATA BANK CONVENTIONS REQUIRE THAT
REMARK     285 CRYST1 RECORD IS INCLUDED, BUT THE VALUES ON
REMARK     285 THIS RECORD ARE MEANINGLESS.
REMARK     285 UNITARY VALUES FOR THE UNIT CELL AUTOMATICALLY SET
REMARK     285 BY MDANALYSIS PDBWRITER BECAUSE UNIT CELL INFORMATION
REMARK     285 WAS MISSING.
REMARK     285 PROTEIN DATA BANK CONVENTIONS REQUIRE THAT
REMARK     285 CRYST1 RECORD IS INCLUDED, BUT THE VALUES ON
REMARK     285 THIS RECORD ARE MEANINGLESS.
REMARK                            x       y       z     vdW  Elec       q    Type
REMARK                         _______ _______ _______ _____ _____    ______ ____
ROOT
ATOM      1  N   MET A   1       8.721  28.193 -37.258  1.00  0.00    -0.124 NA
ATOM      2  CA  MET A   1       9.638  28.289 -36.126  1.00  0.00    +0.157 C 
ATOM      3  C   MET A   1       8.883  28.233 -34.808  1.00  0.00    +0.258 C 
ATOM      4  O   MET A   1       7.653  28.256 -34.791  1.00  0.00    -0.272 OA
ATOM      5  CB  MET A   1      10.447  29.575 -36.191  1.00  0.00    +0.039 C 
ATOM      6  CG  MET A   1      11.817  29.468 -35.539  1.00  0.00    +0.060 C 
ATOM      7  SD  MET A   1      12.459  27.776 -35.537  1.00  0.00    -0.138 S 
ATOM      8  CE  MET A   1      10.980  26.861 -35.958  1.00  0.00    +0.084 C 
ATOM      9  N   LYS A   2       9.618  28.160 -33.701  1.00  0.00    -0.197 N 
ATOM     10  CA  LYS A   2       9.056  27.667 -32.448  1.00  0.00    +0.173 C 
ATOM     11  C   LYS A   2       8.270  28.756 -31.735  1.00  0.00    +0.263 C 
ATOM     12  O   LYS A   2       8.687  29.914 -31.716  1.00  0.00    -0.271 OA
ATOM     13  CB  LYS A   2      10.151  27.148 -31.531  1.00  0.00    +0.031 C 
ATOM     14  CG  LYS A   2      10.335  25.640 -31.583  1.00  0.00    +0.009 C 
ATOM     15  CD  LYS A   2      11.573  25.195 -30.824  1.00  0.00    +0.049 C 
ATOM     16  CE  LYS A   2      12.782  25.342 -31.630  1.00  0.00    +0.096 C 
ATOM     17  NZ  LYS A   2      13.731  24.418 -31.748  1.00  0.00    -0.151 NA
ATOM     18  N   LEU A   3       7.136  28.386 -31.148  1.00  0.00    -0.176 N 
ATOM     19  CA  LEU A   3       6.864  28.705 -29.749  1.00  0.00    +0.212 C 
ATOM     20  CB  LEU A   3       5.384  28.546 -29.439  1.00  0.00    +0.053 C 
ATOM     21  CG  LEU A   3       4.706  29.741 -28.766  1.00  0.00    +0.004 C 
ATOM     22  CD1 LEU A   3       3.636  30.325 -29.680  1.00  0.00    +0.000 C 
ATOM     23  CD2 LEU A   3       5.650  30.937 -28.720  1.00  0.00    +0.000 C 
ATOM     24  N   ALA A   4       8.357  28.420 -27.858  1.00  0.00    -0.094 NA
ATOM     25  CA  ALA A   4       9.271  27.680 -26.993  1.00  0.00    +0.267 C 
ATOM     26  C   ALA A   4       8.513  26.761 -26.051  1.00  0.00    +0.291 C 
ATOM     27  O   ALA A   4       7.470  27.136 -25.516  1.00  0.00    -0.185 OA
ATOM     28  CB  ALA A   4      10.138  28.633 -26.184  1.00  0.00    +0.176 C 
ATOM     29  N   VAL A   5       9.034  25.554 -25.846  1.00  0.00    -0.174 NA
ATOM     30  CA  VAL A   5       9.097  24.971 -24.509  1.00  0.00    +0.102 C 
ATOM     31  C   VAL A   5      10.167  25.677 -23.692  1.00  0.00    +0.242 C 
ATOM     32  O   VAL A   5      10.012  25.858 -22.485  1.00  0.00    -0.273 OA
ATOM     33  CB  VAL A   5       9.394  23.482 -24.553  1.00  0.00    +0.010 C 
ATOM     34  CG1 VAL A   5       9.507  22.911 -23.142  1.00  0.00    +0.001 C 
ATOM     35  CG2 VAL A   5       8.274  22.736 -25.276  1.00  0.00    +0.000 C 
ATOM     36  N   PHE A   6      11.252  26.075 -24.346  1.00  0.00    -0.205 N 
ATOM     37  CA  PHE A   6      11.311  27.378 -25.001  1.00  0.00    +0.120 C 
ATOM     38  O   PHE A   6       9.848  28.401 -26.593  1.00  0.00    -0.332 OA
ATOM     39  CB  PHE A   6      12.745  27.745 -25.353  1.00  0.00    +0.050 C 
ATOM     40  CG  PHE A   6      13.750  26.706 -24.956  1.00  0.00    -0.020 A 
ATOM     41  CD1 PHE A   6      13.647  25.412 -25.453  1.00  0.00    -0.004 A 
ATOM     42  CE1 PHE A   6      14.579  24.450 -25.085  1.00  0.00    -0.000 A 
ATOM     43  CD2 PHE A   6      14.787  27.038 -24.091  1.00  0.00    -0.004 A 
ATOM     44  CE2 PHE A   6      15.720  26.075 -23.723  1.00  0.00    -0.000 A 
ATOM     45  CZ  PHE A   6      15.616  24.781 -24.220  1.00  0.00    -0.000 A 
ATOM     46  N   ALA A   7      10.426  26.261 -26.966  1.00  0.00    -0.131 NA
ATOM     47  CA  ALA A   7       9.942  26.240 -28.343  1.00  0.00    +0.114 C 
ATOM     48  CB  ALA A   7      10.404  24.981 -29.057  1.00  0.00    +0.047 C 
ATOM     49  N   LEU A   8       7.773  25.954 -27.293  1.00  0.00    -0.172 NA
ATOM     50  CA  LEU A   8       7.257  24.597 -27.136  1.00  0.00    +0.124 C 
ATOM     51  C   LEU A   8       5.916  24.442 -27.836  1.00  0.00    +0.242 C 
ATOM     52  O   LEU A   8       5.527  23.332 -28.196  1.00  0.00    -0.202 OA
ATOM     53  CB  LEU A   8       7.104  24.247 -25.664  1.00  0.00    +0.023 C 
ATOM     54  CG  LEU A   8       8.297  23.543 -25.012  1.00  0.00    +0.001 C 
ATOM     55  CD1 LEU A   8       7.991  23.231 -23.552  1.00  0.00    +0.000 C 
ATOM     56  CD2 LEU A   8       9.448  24.522 -24.805  1.00  0.00    +0.096 C 
ATOM     57  N   LEU A   9       5.211  25.553 -28.027  1.00  0.00    -0.185 NA
ATOM     58  CA  LEU A   9       4.548  25.820 -29.300  1.00  0.00    +0.119 C 
ATOM     59  C   LEU A   9       5.558  26.218 -30.364  1.00  0.00    +0.208 C 
ATOM     60  O   LEU A   9       6.186  27.272 -30.269  1.00  0.00    -0.320 OA
ATOM     61  CB  LEU A   9       3.513  26.925 -29.145  1.00  0.00    +0.021 C 
ATOM     62  CG  LEU A   9       2.082  26.567 -29.553  1.00  0.00    +0.002 C 
ATOM     63  CD1 LEU A   9       1.248  27.833 -29.711  1.00  0.00    +0.000 C 
ATOM     64  CD2 LEU A   9       1.333  25.939 -28.383  1.00  0.00    +0.000 C 
ATOM     65  N   VAL A  10       5.716  25.376 -31.381  1.00  0.00    -0.183 NA
ATOM     66  CA  VAL A  10       5.488  25.796 -32.759  1.00  0.00    +0.153 C 
ATOM     67  C   VAL A  10       3.995  25.865 -33.036  1.00  0.00    +0.258 C 
ATOM     68  O   VAL A  10       3.357  26.884 -32.777  1.00  0.00    -0.272 OA
ATOM     69  CB  VAL A  10       6.146  24.855 -33.756  1.00  0.00    +0.025 C 
ATOM     70  CG1 VAL A  10       5.372  23.543 -33.852  1.00  0.00    +0.002 C 
ATOM     71  CG2 VAL A  10       6.176  25.488 -35.145  1.00  0.00    +0.002 C 
ATOM     72  N   CYS A  11       3.437  24.778 -33.564  1.00  0.00    -0.196 N 
ATOM     73  CA  CYS A  11       2.450  23.996 -32.826  1.00  0.00    +0.184 C 
ATOM     74  C   CYS A  11       3.130  23.007 -31.892  1.00  0.00    +0.262 C 
ATOM     75  O   CYS A  11       2.465  22.313 -31.125  1.00  0.00    -0.271 OA
ATOM     76  CB  CYS A  11       1.535  23.246 -33.780  1.00  0.00    +0.100 C 
ATOM     77  SG  CYS A  11       0.506  24.324 -34.803  1.00  0.00    -0.080 S 
ATOM     78  N   PHE A  12       4.457  22.941 -31.957  1.00  0.00    -0.201 N 
ATOM     79  CA  PHE A  12       5.179  21.740 -31.548  1.00  0.00    +0.147 C 
ATOM     80  C   PHE A  12       5.270  21.658 -30.033  1.00  0.00    +0.246 C 
ATOM     81  O   PHE A  12       5.466  22.670 -29.363  1.00  0.00    -0.202 OA
ATOM     82  CB  PHE A  12       6.578  21.719 -32.143  1.00  0.00    +0.052 C 
ATOM     83  CG  PHE A  12       7.546  22.633 -31.450  1.00  0.00    -0.020 A 
ATOM     84  CD1 PHE A  12       8.527  22.103 -30.619  1.00  0.00    -0.005 A 
ATOM     85  CE1 PHE A  12       9.424  22.949 -29.977  1.00  0.00    -0.005 A 
ATOM     86  CD2 PHE A  12       7.462  24.006 -31.639  1.00  0.00    -0.005 A 
ATOM     87  CE2 PHE A  12       8.360  24.852 -30.998  1.00  0.00    -0.005 A 
ATOM     88  CZ  PHE A  12       9.340  24.323 -30.167  1.00  0.00    -0.021 A 
ATOM     89  N   ALA A  13       5.130  20.451 -29.491  1.00  0.00    -0.180 NA
ATOM     90  CA  ALA A  13       6.131  19.903 -28.582  1.00  0.00    +0.153 C 
ATOM     91  C   ALA A  13       6.994  18.864 -29.281  1.00  0.00    +0.258 C 
ATOM     92  O   ALA A  13       6.513  18.131 -30.143  1.00  0.00    -0.272 OA
ATOM     93  CB  ALA A  13       5.470  19.279 -27.364  1.00  0.00    +0.029 C 
ATOM     94  N   GLU A  14       8.269  18.799 -28.908  1.00  0.00    -0.197 N 
ATOM     95  CA  GLU A  14       8.921  17.521 -28.646  1.00  0.00    +0.173 C 
ATOM     96  C   GLU A  14       8.172  16.730 -27.585  1.00  0.00    +0.262 C 
ATOM     97  O   GLU A  14       7.562  15.706 -27.885  1.00  0.00    -0.271 OA
ATOM     98  CB  GLU A  14      10.361  17.727 -28.205  1.00  0.00    +0.043 C 
ATOM     99  CG  GLU A  14      11.055  16.449 -27.761  1.00  0.00    +0.116 C 
ATOM    100  CD  GLU A  14      12.570  16.569 -27.727  1.00  0.00    +0.365 C 
ATOM    101  OE1 GLU A  14      13.092  17.464 -27.026  1.00  0.00    -0.246 OA
ATOM    102  OE2 GLU A  14      13.240  15.761 -28.405  1.00  0.00    -0.246 OA
ATOM    103  N   SER A  15       8.222  17.205 -26.342  1.00  0.00    -0.194 N 
ATOM    104  CA  SER A  15       9.132  16.645 -25.350  1.00  0.00    +0.205 C 
ATOM    105  C   SER A  15       8.619  15.318 -24.815  1.00  0.00    +0.264 C 
ATOM    106  O   SER A  15       7.834  15.290 -23.868  1.00  0.00    -0.271 OA
ATOM    107  CB  SER A  15       9.331  17.614 -24.197  1.00  0.00    +0.213 C 
ATOM    108  OG  SER A  15       8.289  17.482 -23.245  1.00  0.00    -0.218 OA
ATOM    109  N   SER A  16       9.060  14.219 -25.420  1.00  0.00    -0.194 N 
ATOM    110  CA  SER A  16       8.921  12.904 -24.802  1.00  0.00    +0.205 C 
ATOM    111  C   SER A  16       9.956  12.696 -23.707  1.00  0.00    +0.264 C 
ATOM    112  O   SER A  16       9.821  11.791 -22.884  1.00  0.00    -0.271 OA
ATOM    113  CB  SER A  16       9.059  11.805 -25.843  1.00  0.00    +0.213 C 
ATOM    114  OG  SER A  16      10.370  11.779 -26.377  1.00  0.00    -0.218 OA
ATOM    115  N   ASP A  17      10.989  13.533 -23.695  1.00  0.00    -0.196 N 
ATOM    116  CA  ASP A  17      11.959  13.530 -22.604  1.00  0.00    +0.184 C 
ATOM    117  C   ASP A  17      11.398  14.228 -21.375  1.00  0.00    +0.262 C 
ATOM    118  O   ASP A  17      11.133  15.429 -21.407  1.00  0.00    -0.271 OA
ATOM    119  CB  ASP A  17      13.254  14.204 -23.025  1.00  0.00    +0.145 C 
ATOM    120  CG  ASP A  17      13.064  15.653 -23.443  1.00  0.00    +0.367 C 
ATOM    121  OD1 ASP A  17      11.905  16.098 -23.592  1.00  0.00    -0.246 OA
ATOM    122  OD2 ASP A  17      14.082  16.355 -23.622  1.00  0.00    -0.246 OA
ATOM    123  N   LEU A  18      11.220  13.478 -20.292  1.00  0.00    -0.196 N 
ATOM    124  CA  LEU A  18      11.637  13.937 -18.971  1.00  0.00    +0.173 C 
ATOM    125  C   LEU A  18      12.870  13.183 -18.499  1.00  0.00    +0.262 C 
ATOM    126  O   LEU A  18      13.079  12.032 -18.875  1.00  0.00    -0.271 OA
ATOM    127  CB  LEU A  18      10.516  13.761 -17.960  1.00  0.00    +0.031 C 
ATOM    128  CG  LEU A  18       9.467  14.874 -17.915  1.00  0.00    +0.002 C 
ATOM    129  CD1 LEU A  18       8.909  15.016 -16.504  1.00  0.00    +0.000 C 
ATOM    130  CD2 LEU A  18       8.192  14.437 -18.627  1.00  0.00    +0.000 C 
ATOM    131  N   VAL A  19      13.687  13.832 -17.675  1.00  0.00    -0.196 N 
ATOM    132  CA  VAL A  19      13.889  13.389 -16.299  1.00  0.00    +0.173 C 
ATOM    133  C   VAL A  19      12.983  14.176 -15.367  1.00  0.00    +0.262 C 
ATOM    134  O   VAL A  19      12.781  15.376 -15.557  1.00  0.00    -0.271 OA
ATOM    135  CB  VAL A  19      15.335  13.551 -15.858  1.00  0.00    +0.029 C 
ATOM    136  CG1 VAL A  19      16.273  12.804 -16.800  1.00  0.00    +0.002 C 
ATOM    137  CG2 VAL A  19      15.732  15.026 -15.867  1.00  0.00    +0.002 C 
ATOM    138  N   ARG A  20      12.437  13.504 -14.357  1.00  0.00    -0.196 N 
ATOM    139  CA  ARG A  20      12.573  13.962 -12.977  1.00  0.00    +0.173 C 
ATOM    140  C   ARG A  20      13.938  13.600 -12.417  1.00  0.00    +0.262 C 
ATOM    141  O   ARG A  20      14.318  12.431 -12.402  1.00  0.00    -0.271 OA
ATOM    142  CB  ARG A  20      11.488  13.363 -12.098  1.00  0.00    +0.033 C 
ATOM    143  CG  ARG A  20      11.357  14.035 -10.740  1.00  0.00    +0.029 C 
ATOM    144  CD  ARG A  20      10.430  13.264  -9.816  1.00  0.00    +0.129 C 
ATOM    145  NE  ARG A  20      10.022  14.068  -8.668  1.00  0.00    -0.234 NA
ATOM    146  CZ  ARG A  20      10.793  14.963  -8.055  1.00  0.00    +0.284 C 
ATOM    147  NH1 ARG A  20      11.230  16.038  -8.705  1.00  0.00    -0.104 N 
ATOM    148  NH2 ARG A  20      11.129  14.778  -6.782  1.00  0.00    -0.104 N 
ATOM    149  N   ARG A  21      14.679  14.605 -11.956  1.00  0.00    -0.194 N 
ATOM    150  CA  ARG A  21      15.444  14.479 -10.719  1.00  0.00    +0.198 C 
ATOM    151  C   ARG A  21      14.641  14.978  -9.529  1.00  0.00    +0.384 C 
ATOM    152  O   ARG A  21      14.467  14.260  -8.546  1.00  0.00    -0.244 OA
ATOM    153  CB  ARG A  21      16.751  15.250 -10.810  1.00  0.00    +0.035 C 
ATOM    154  CG  ARG A  21      17.940  14.398 -11.221  1.00  0.00    +0.029 C 
ATOM    155  CD  ARG A  21      19.099  15.248 -11.715  1.00  0.00    +0.129 C 
ATOM    156  NE  ARG A  21      20.204  14.425 -12.200  1.00  0.00    -0.234 NA
ATOM    157  CZ  ARG A  21      21.239  14.879 -12.900  1.00  0.00    +0.284 C 
ATOM    158  NH1 ARG A  21      21.053  15.481 -14.072  1.00  0.00    -0.104 N 
ATOM    159  NH2 ARG A  21      22.471  14.729 -12.422  1.00  0.00    -0.104 N 
ATOM    160  OXT ARG A  21      14.155  16.108  -9.533  1.00  0.00    -0.244 OA
ATOM    161  H   MET A   1       8.075  28.982 -37.241  1.00  0.00    +0.000 HD
ATOM    162  H   MET A   1       8.195  27.322 -37.196  1.00  0.00    +0.000 HD
ATOM    163  H   LYS A   2      10.560  28.445 -33.728  1.00  0.00    +0.000 HD
ATOM    164  H   LYS A   2      13.646  23.561 -31.271  1.00  0.00    +0.000 HD
ATOM    165  H   LEU A   3       6.465  27.888 -31.669  1.00  0.00    +0.000 HD
ATOM    166  H   ALA A   4       8.893  29.027 -28.478  1.00  0.00    +0.000 HD
ATOM    167  H   ALA A   4       7.729  28.984 -27.286  1.00  0.00    +0.000 HD
ATOM    168  H   ALA A   4       7.269  28.041 -25.800  1.00  0.00    +0.000 HD
ATOM    169  H   VAL A   5       9.993  25.592 -26.189  1.00  0.00    +0.000 HD
ATOM    170  H   PHE A   6      12.034  25.478 -24.389  1.00  0.00    +0.000 HD
ATOM    171  H   ALA A   7      10.105  27.113 -26.506  1.00  0.00    +0.000 HD
ATOM    172  H   ALA A   7      11.446  26.237 -26.964  1.00  0.00    +0.000 HD
ATOM    173  H   LEU A   8       8.452  25.916 -28.053  1.00  0.00    +0.000 HD
ATOM    174  H   LEU A   9       4.481  25.557 -27.315  1.00  0.00    +0.000 HD
ATOM    175  H   VAL A  10       6.681  25.048 -31.336  1.00  0.00    +0.000 HD
ATOM    176  H   CYS A  11       3.696  24.496 -34.471  1.00  0.00    +0.000 HD
ATOM    177  H   CYS A  11       1.302  25.095 -35.592  1.00  0.00    +0.000 HD
ATOM    178  H   PHE A  12       4.962  23.718 -32.289  1.00  0.00    +0.000 HD
ATOM    179  H   ALA A  13       5.056  19.794 -30.268  1.00  0.00    +0.000 HD
ATOM    180  H   GLU A  14       8.783  19.633 -28.806  1.00  0.00    +0.000 HD
ATOM    181  H   GLU A  14      12.808  15.105 -28.916  1.00  0.00    +0.000 HD
ATOM    182  H   SER A  15       7.630  17.949 -26.087  1.00  0.00    +0.000 HD
ATOM    183  H   SER A  15       7.438  17.680 -23.667  1.00  0.00    +0.000 HD
ATOM    184  H   SER A  16       9.490  14.294 -26.303  1.00  0.00    +0.000 HD
ATOM    185  H   SER A  16      11.006  11.606 -25.666  1.00  0.00    +0.000 HD
ATOM    186  H   ASP A  17      11.104  14.168 -24.439  1.00  0.00    +0.000 HD
ATOM    187  H   ASP A  17      11.167  15.540 -23.447  1.00  0.00    +0.000 HD
ATOM    188  H   LEU A  18      10.797  12.594 -20.383  1.00  0.00    +0.000 HD
ATOM    189  H   VAL A  19      14.166  14.628 -18.000  1.00  0.00    +0.000 HD
ATOM    190  H   ARG A  20      11.932  12.680 -14.545  1.00  0.00    +0.000 HD
ATOM    191  H   ARG A  20      10.983  16.178  -9.647  1.00  0.00    +0.000 HD
ATOM    192  H   ARG A  20      11.801  16.694  -8.243  1.00  0.00    +0.000 HD
ATOM    193  H   ARG A  20      11.699  15.436  -6.323  1.00  0.00    +0.000 HD
ATOM    194  H   ARG A  20      10.807  13.983  -6.299  1.00  0.00    +0.000 HD
ATOM    195  H   ARG A  21      14.712  15.450 -12.459  1.00  0.00    +0.000 HD
ATOM    196  H   ARG A  21      14.830  13.396  -8.527  1.00  0.00    +0.000 HD
ATOM    197  H   ARG A  21      21.826  15.814 -14.582  1.00  0.00    +0.000 HD
ATOM    198  H   ARG A  21      20.143  15.593 -14.429  1.00  0.00    +0.000 HD
ATOM    199  H   ARG A  21      23.242  15.064 -12.936  1.00  0.00    +0.000 HD
ATOM    200  H   ARG A  21      22.613  14.285 -11.556  1.00  0.00    +0.000 HD
ATOM      1  C   LEU A   3       7.674  27.813 -28.824  1.00  0.00    +0.000 C 
ATOM      1  O   LEU A   3       7.684  26.593 -28.983  1.00  0.00    -0.186 OA
ATOM      2  C   ALA A   7       8.425  26.324 -28.391  1.00  0.00    +0.221 C 
ATOM      3  O   ALA A   7       7.854  26.717 -29.408  1.00  0.00    -0.035 OA
ATOM      4  H   ALA A   7       7.120  26.980 -29.985  1.00  0.00    +0.000 HD
ATOM      1  C   PHE A   6      10.462  27.388 -26.261  1.00  0.00    +0.000 C 
ENDROOT
TORSDOF 0
