REMARK  Name = /var/folders/yp/yjbh3p597675h2qddgqr02y00000gn/T/tmpaw4rcahf.pdb
REMARK     285 UNITARY VALUES FOR THE UNIT CELL AUTOMATICALLY SET
REMARK     285 BY MDANALYSIS PDBWRITER BECAUSE UNIT CELL INFORMATION
REMARK     285 WAS MISSING.
REMARK     285 PROTEIN DATA BANK CONVENTIONS REQUIRE THAT
REMARK     285 CRYST1 RECORD IS INCLUDED, BUT THE VALUES ON
REMARK     285 THIS RECORD ARE MEANINGLESS.
REMARK     285 UNITARY VALUES FOR THE UNIT CELL AUTOMATICALLY SET
REMARK     285 BY MDANALYSIS PDBWRITER BECAUSE UNIT CELL INFORMATION
REMARK     285 WAS MISSING.
REMARK     285 PROTEIN DATA BANK CONVENTIONS REQUIRE THAT
REMARK     285 CRYST1 RECORD IS INCLUDED, BUT THE VALUES ON
REMARK     285 THIS RECORD ARE MEANINGLESS.
REMARK                            x       y       z     vdW  Elec       q    Type
REMARK                         _______ _______ _______ _____ _____    ______ ____
ROOT
ATOM      1  N   MET A   1      16.999  27.638  17.743  1.00  0.00    -0.123 NA
ATOM      2  CA  MET A   1      16.090  28.169  16.731  1.00  0.00    +0.170 C 
ATOM      3  C   MET A   1      15.482  27.047  15.905  1.00  0.00    +0.259 C 
ATOM      4  O   MET A   1      16.139  26.044  15.635  1.00  0.00    -0.272 OA
ATOM      5  CB  MET A   1      16.810  29.143  15.813  1.00  0.00    +0.040 C 
ATOM      6  CG  MET A   1      15.883  29.884  14.862  1.00  0.00    +0.060 C 
ATOM      7  SD  MET A   1      15.971  31.681  15.060  1.00  0.00    -0.139 S 
ATOM      8  CE  MET A   1      15.516  31.845  16.782  1.00  0.00    +0.069 C 
ATOM      9  N   LYS A   2      14.227  27.217  15.500  1.00  0.00    -0.197 N 
ATOM     10  CA  LYS A   2      13.274  26.110  15.492  1.00  0.00    +0.173 C 
ATOM     11  C   LYS A   2      13.687  25.041  14.493  1.00  0.00    +0.262 C 
ATOM     12  O   LYS A   2      14.408  25.325  13.539  1.00  0.00    -0.271 OA
ATOM     13  CB  LYS A   2      11.876  26.602  15.160  1.00  0.00    +0.031 C 
ATOM     14  CG  LYS A   2      10.956  26.701  16.366  1.00  0.00    +0.009 C 
ATOM     15  CD  LYS A   2       9.584  26.111  16.079  1.00  0.00    +0.049 C 
ATOM     16  CE  LYS A   2       8.633  26.418  17.145  1.00  0.00    +0.096 C 
ATOM     17  NZ  LYS A   2       7.394  26.861  16.951  1.00  0.00    -0.151 NA
ATOM     18  N   LEU A   3      13.232  23.811  14.713  1.00  0.00    -0.196 N 
ATOM     19  CA  LEU A   3      14.107  22.754  15.211  1.00  0.00    +0.173 C 
ATOM     20  C   LEU A   3      14.733  21.984  14.060  1.00  0.00    +0.262 C 
ATOM     21  O   LEU A   3      14.064  21.679  13.075  1.00  0.00    -0.271 OA
ATOM     22  CB  LEU A   3      13.338  21.794  16.104  1.00  0.00    +0.031 C 
ATOM     23  CG  LEU A   3      13.680  21.841  17.595  1.00  0.00    +0.002 C 
ATOM     24  CD1 LEU A   3      14.361  23.159  17.939  1.00  0.00    +0.000 C 
ATOM     25  CD2 LEU A   3      14.832  20.893  17.911  1.00  0.00    +0.000 C 
ATOM     26  N   ALA A   4      16.019  21.670  14.183  1.00  0.00    -0.196 N 
ATOM     27  CA  ALA A   4      16.577  20.483  13.542  1.00  0.00    +0.173 C 
ATOM     28  C   ALA A   4      15.989  19.214  14.137  1.00  0.00    +0.262 C 
ATOM     29  O   ALA A   4      15.720  19.152  15.336  1.00  0.00    -0.271 OA
ATOM     30  CB  ALA A   4      18.091  20.454  13.682  1.00  0.00    +0.033 C 
ATOM     31  N   VAL A   5      15.787  18.201  13.300  1.00  0.00    -0.196 N 
ATOM     32  CA  VAL A   5      16.121  16.829  13.673  1.00  0.00    +0.173 C 
ATOM     33  C   VAL A   5      17.223  16.305  12.767  1.00  0.00    +0.262 C 
ATOM     34  O   VAL A   5      16.957  15.868  11.648  1.00  0.00    -0.271 OA
ATOM     35  CB  VAL A   5      14.915  15.908  13.589  1.00  0.00    +0.029 C 
ATOM     36  CG1 VAL A   5      15.176  14.606  14.340  1.00  0.00    +0.002 C 
ATOM     37  CG2 VAL A   5      13.690  16.575  14.214  1.00  0.00    +0.002 C 
ATOM     38  N   PHE A   6      18.462  16.348  13.248  1.00  0.00    -0.196 N 
ATOM     39  CA  PHE A   6      19.413  15.268  12.998  1.00  0.00    +0.177 C 
ATOM     40  C   PHE A   6      19.125  14.078  13.898  1.00  0.00    +0.262 C 
ATOM     41  O   PHE A   6      19.297  14.156  15.113  1.00  0.00    -0.271 OA
ATOM     42  CB  PHE A   6      20.840  15.740  13.221  1.00  0.00    +0.057 C 
ATOM     43  CG  PHE A   6      21.484  16.324  11.998  1.00  0.00    -0.020 A 
ATOM     44  CD1 PHE A   6      22.861  16.243  11.832  1.00  0.00    -0.004 A 
ATOM     45  CE1 PHE A   6      23.457  16.784  10.699  1.00  0.00    -0.000 A 
ATOM     46  CD2 PHE A   6      20.702  16.945  11.032  1.00  0.00    -0.004 A 
ATOM     47  CE2 PHE A   6      21.298  17.486   9.897  1.00  0.00    -0.000 A 
ATOM     48  CZ  PHE A   6      22.675  17.406   9.732  1.00  0.00    -0.000 A 
ATOM     49  N   ALA A   7      18.685  12.972  13.302  1.00  0.00    -0.196 N 
ATOM     50  CA  ALA A   7      19.265  11.666  13.601  1.00  0.00    +0.173 C 
ATOM     51  C   ALA A   7      20.679  11.556  13.050  1.00  0.00    +0.262 C 
ATOM     52  O   ALA A   7      20.980  12.110  11.994  1.00  0.00    -0.271 OA
ATOM     53  CB  ALA A   7      18.409  10.551  13.025  1.00  0.00    +0.033 C 
ATOM     54  N   LEU A   8      21.543  10.843  13.763  1.00  0.00    -0.196 N 
ATOM     55  CA  LEU A   8      22.757  10.296  13.165  1.00  0.00    +0.173 C 
ATOM     56  C   LEU A   8      22.460   8.999  12.429  1.00  0.00    +0.262 C 
ATOM     57  O   LEU A   8      23.023   8.742  11.367  1.00  0.00    -0.271 OA
ATOM     58  CB  LEU A   8      23.817  10.047  14.224  1.00  0.00    +0.031 C 
ATOM     59  CG  LEU A   8      24.788  11.200  14.488  1.00  0.00    +0.002 C 
ATOM     60  CD1 LEU A   8      24.764  11.583  15.963  1.00  0.00    +0.000 C 
ATOM     61  CD2 LEU A   8      24.247  12.501  13.901  1.00  0.00    +0.000 C 
ATOM     62  N   LEU A   9      21.576   8.182  12.995  1.00  0.00    -0.196 N 
ATOM     63  CA  LEU A   9      21.862   6.761  13.175  1.00  0.00    +0.173 C 
ATOM     64  C   LEU A   9      21.936   6.050  11.835  1.00  0.00    +0.262 C 
ATOM     65  O   LEU A   9      21.245   6.424  10.888  1.00  0.00    -0.271 OA
ATOM     66  CB  LEU A   9      20.797   6.104  14.040  1.00  0.00    +0.031 C 
ATOM     67  CG  LEU A   9      21.304   5.147  15.120  1.00  0.00    +0.002 C 
ATOM     68  CD1 LEU A   9      20.132   4.523  15.866  1.00  0.00    +0.000 C 
ATOM     69  CD2 LEU A   9      21.928   5.923  16.275  1.00  0.00    +0.000 C 
ATOM     70  N   VAL A  10      22.778   5.022  11.749  1.00  0.00    -0.196 N 
ATOM     71  CA  VAL A  10      22.630   4.002  10.716  1.00  0.00    +0.173 C 
ATOM     72  C   VAL A  10      22.588   2.624  11.355  1.00  0.00    +0.262 C 
ATOM     73  O   VAL A  10      23.498   2.250  12.094  1.00  0.00    -0.271 OA
ATOM     74  CB  VAL A  10      23.759   4.056   9.699  1.00  0.00    +0.029 C 
ATOM     75  CG1 VAL A  10      23.511   3.065   8.565  1.00  0.00    +0.002 C 
ATOM     76  CG2 VAL A  10      23.861   5.453   9.092  1.00  0.00    +0.002 C 
ATOM     77  N   CYS A  11      21.533   1.866  11.071  1.00  0.00    -0.195 N 
ATOM     78  CA  CYS A  11      21.688   0.499  10.583  1.00  0.00    +0.184 C 
ATOM     79  C   CYS A  11      21.901   0.480   9.079  1.00  0.00    +0.263 C 
ATOM     80  O   CYS A  11      22.222   1.504   8.480  1.00  0.00    -0.271 OA
ATOM     81  CB  CYS A  11      20.470  -0.340  10.934  1.00  0.00    +0.100 C 
ATOM     82  SG  CYS A  11      20.185  -0.507  12.712  1.00  0.00    -0.080 S 
ATOM     83  N   PHE A  12      21.724  -0.687   8.467  1.00  0.00    -0.196 N 
ATOM     84  CA  PHE A  12      22.595  -1.115   7.376  1.00  0.00    +0.177 C 
ATOM     85  C   PHE A  12      22.315  -0.311   6.116  1.00  0.00    +0.262 C 
ATOM     86  O   PHE A  12      21.186  -0.285   5.630  1.00  0.00    -0.271 OA
ATOM     87  CB  PHE A  12      22.412  -2.595   7.083  1.00  0.00    +0.057 C 
ATOM     88  CG  PHE A  12      23.034  -3.497   8.108  1.00  0.00    -0.020 A 
ATOM     89  CD1 PHE A  12      24.365  -3.873   7.987  1.00  0.00    -0.004 A 
ATOM     90  CE1 PHE A  12      24.942  -4.709   8.936  1.00  0.00    -0.000 A 
ATOM     91  CD2 PHE A  12      22.277  -3.956   9.180  1.00  0.00    -0.004 A 
ATOM     92  CE2 PHE A  12      22.853  -4.791  10.131  1.00  0.00    -0.000 A 
ATOM     93  CZ  PHE A  12      24.185  -5.167  10.009  1.00  0.00    -0.000 A 
ATOM     94  N   ALA A  13      23.343   0.346   5.587  1.00  0.00    -0.196 N 
ATOM     95  CA  ALA A  13      23.554   0.393   4.144  1.00  0.00    +0.173 C 
ATOM     96  C   ALA A  13      23.950  -0.973   3.605  1.00  0.00    +0.262 C 
ATOM     97  O   ALA A  13      24.895  -1.588   4.099  1.00  0.00    -0.271 OA
ATOM     98  CB  ALA A  13      24.627   1.410   3.786  1.00  0.00    +0.033 C 
ATOM     99  N   GLU A  14      23.231  -1.448   2.593  1.00  0.00    -0.196 N 
ATOM    100  CA  GLU A  14      23.763  -2.468   1.694  1.00  0.00    +0.173 C 
ATOM    101  C   GLU A  14      24.670  -1.853   0.641  1.00  0.00    +0.262 C 
ATOM    102  O   GLU A  14      24.504  -0.691   0.275  1.00  0.00    -0.271 OA
ATOM    103  CB  GLU A  14      22.638  -3.228   1.011  1.00  0.00    +0.039 C 
ATOM    104  CG  GLU A  14      23.119  -4.256  -0.001  1.00  0.00    +0.093 C 
ATOM    105  CD  GLU A  14      22.004  -4.803  -0.877  1.00  0.00    +0.327 C 
ATOM    106  OE1 GLU A  14      20.819  -4.501  -0.613  1.00  0.00    -0.165 OA
ATOM    107  OE2 GLU A  14      22.317  -5.540  -1.837  1.00  0.00    -0.284 OA
ATOM    108  N   SER A  15      25.631  -2.632   0.153  1.00  0.00    -0.194 N 
ATOM    109  CA  SER A  15      26.382  -2.256  -1.042  1.00  0.00    +0.205 C 
ATOM    110  C   SER A  15      25.571  -2.504  -2.302  1.00  0.00    +0.264 C 
ATOM    111  O   SER A  15      25.949  -2.060  -3.386  1.00  0.00    -0.271 OA
ATOM    112  CB  SER A  15      27.688  -3.029  -1.118  1.00  0.00    +0.213 C 
ATOM    113  OG  SER A  15      27.446  -4.403  -1.367  1.00  0.00    -0.218 OA
ATOM    114  N   SER A  16      24.455  -3.215  -2.165  1.00  0.00    -0.191 N 
ATOM    115  CA  SER A  16      23.681  -3.651  -3.324  1.00  0.00    +0.229 C 
ATOM    116  C   SER A  16      22.914  -2.492  -3.942  1.00  0.00    +0.267 C 
ATOM    117  O   SER A  16      22.504  -2.561  -5.099  1.00  0.00    -0.271 OA
ATOM    118  CB  SER A  16      22.710  -4.754  -2.939  1.00  0.00    +0.272 C 
ATOM    119  OG  SER A  16      21.680  -4.248  -2.106  1.00  0.00    -0.284 OA
ATOM    120  N   ASP A  17      22.719  -1.427  -3.169  1.00  0.00    -0.196 N 
ATOM    121  CA  ASP A  17      22.197  -0.177  -3.713  1.00  0.00    +0.184 C 
ATOM    122  C   ASP A  17      23.231   0.935  -3.614  1.00  0.00    +0.262 C 
ATOM    123  O   ASP A  17      23.971   1.010  -2.635  1.00  0.00    -0.271 OA
ATOM    124  CB  ASP A  17      20.929   0.244  -2.990  1.00  0.00    +0.145 C 
ATOM    125  CG  ASP A  17      19.776  -0.724  -3.199  1.00  0.00    +0.367 C 
ATOM    126  OD1 ASP A  17      19.720  -1.385  -4.259  1.00  0.00    -0.246 OA
ATOM    127  OD2 ASP A  17      18.916  -0.824  -2.296  1.00  0.00    -0.246 OA
ATOM    128  N   LEU A  18      23.280   1.796  -4.626  1.00  0.00    -0.196 N 
ATOM    129  CA  LEU A  18      23.365   3.234  -4.397  1.00  0.00    +0.173 C 
ATOM    130  C   LEU A  18      22.458   3.990  -5.355  1.00  0.00    +0.262 C 
ATOM    131  O   LEU A  18      22.493   3.760  -6.562  1.00  0.00    -0.271 OA
ATOM    132  CB  LEU A  18      24.795   3.722  -4.559  1.00  0.00    +0.031 C 
ATOM    133  CG  LEU A  18      24.971   5.226  -4.785  1.00  0.00    +0.002 C 
ATOM    134  CD1 LEU A  18      25.492   5.491  -6.192  1.00  0.00    +0.000 C 
ATOM    135  CD2 LEU A  18      26.165   5.750  -3.994  1.00  0.00    +0.000 C 
ATOM    136  N   VAL A  19      21.644   4.894  -4.817  1.00  0.00    -0.196 N 
ATOM    137  CA  VAL A  19      21.831   5.366  -3.448  1.00  0.00    +0.173 C 
ATOM    138  C   VAL A  19      20.641   4.955  -2.595  1.00  0.00    +0.262 C 
ATOM    139  O   VAL A  19      19.495   5.067  -3.026  1.00  0.00    -0.271 OA
ATOM    140  CB  VAL A  19      22.003   6.875  -3.386  1.00  0.00    +0.029 C 
ATOM    141  CG1 VAL A  19      22.811   7.375  -4.580  1.00  0.00    +0.002 C 
ATOM    142  CG2 VAL A  19      20.640   7.566  -3.418  1.00  0.00    +0.002 C 
ATOM    143  N   ARG A  20      20.912   4.480  -1.382  1.00  0.00    -0.196 N 
ATOM    144  CA  ARG A  20      20.117   4.864  -0.220  1.00  0.00    +0.173 C 
ATOM    145  C   ARG A  20      20.502   6.253   0.266  1.00  0.00    +0.262 C 
ATOM    146  O   ARG A  20      19.646   7.126   0.401  1.00  0.00    -0.271 OA
ATOM    147  CB  ARG A  20      20.292   3.866   0.911  1.00  0.00    +0.033 C 
ATOM    148  CG  ARG A  20      19.372   4.111   2.096  1.00  0.00    +0.029 C 
ATOM    149  CD  ARG A  20      17.921   4.245   1.665  1.00  0.00    +0.129 C 
ATOM    150  NE  ARG A  20      17.728   5.382   0.769  1.00  0.00    -0.234 NA
ATOM    151  CZ  ARG A  20      16.546   5.828   0.354  1.00  0.00    +0.284 C 
ATOM    152  NH1 ARG A  20      16.456   6.951  -0.352  1.00  0.00    -0.104 N 
ATOM    153  NH2 ARG A  20      15.444   5.144   0.648  1.00  0.00    -0.104 N 
ATOM    154  N   ARG A  21      21.788   6.458   0.530  1.00  0.00    -0.194 N 
ATOM    155  CA  ARG A  21      22.224   7.001   1.814  1.00  0.00    +0.198 C 
ATOM    156  C   ARG A  21      22.715   8.432   1.662  1.00  0.00    +0.384 C 
ATOM    157  O   ARG A  21      22.962   9.116   2.653  1.00  0.00    -0.244 OA
ATOM    158  CB  ARG A  21      23.326   6.147   2.418  1.00  0.00    +0.035 C 
ATOM    159  CG  ARG A  21      22.837   4.823   2.984  1.00  0.00    +0.029 C 
ATOM    160  CD  ARG A  21      22.837   3.726   1.933  1.00  0.00    +0.129 C 
ATOM    161  NE  ARG A  21      22.192   2.511   2.422  1.00  0.00    -0.234 NA
ATOM    162  CZ  ARG A  21      22.029   2.202   3.706  1.00  0.00    +0.284 C 
ATOM    163  NH1 ARG A  21      21.693   0.968   4.069  1.00  0.00    -0.104 N 
ATOM    164  NH2 ARG A  21      22.203   3.138   4.634  1.00  0.00    -0.104 N 
ATOM    165  OXT ARG A  21      22.873   8.922   0.545  1.00  0.00    -0.244 OA
ATOM    166  H   MET A   1      17.393  28.407  18.284  1.00  0.00    +0.000 HD
ATOM    167  H   MET A   1      17.751  27.123  17.287  1.00  0.00    +0.000 HD
ATOM    168  H   LYS A   2      13.933  28.107  15.199  1.00  0.00    +0.000 HD
ATOM    169  H   LYS A   2       7.060  27.004  16.036  1.00  0.00    +0.000 HD
ATOM    170  H   LEU A   3      12.285  23.608  14.537  1.00  0.00    +0.000 HD
ATOM    171  H   ALA A   4      16.607  22.251  14.718  1.00  0.00    +0.000 HD
ATOM    172  H   VAL A   5      15.404  18.379  12.411  1.00  0.00    +0.000 HD
ATOM    173  H   PHE A   6      18.744  17.124  13.784  1.00  0.00    +0.000 HD
ATOM    174  H   ALA A   7      17.953  13.036  12.646  1.00  0.00    +0.000 HD
ATOM    175  H   LEU A   8      21.360  10.679  14.717  1.00  0.00    +0.000 HD
ATOM    176  H   LEU A   9      20.712   8.543  13.300  1.00  0.00    +0.000 HD
ATOM    177  H   VAL A  10      23.516   4.949  12.397  1.00  0.00    +0.000 HD
ATOM    178  H   CYS A  11      20.628   2.235  11.191  1.00  0.00    +0.000 HD
ATOM    179  H   CYS A  11      21.243  -1.144  13.283  1.00  0.00    +0.000 HD
ATOM    180  H   PHE A  12      20.989  -1.276   8.755  1.00  0.00    +0.000 HD
ATOM    181  H   ALA A  13      23.975   0.812   6.181  1.00  0.00    +0.000 HD
ATOM    182  H   GLU A  14      22.321  -1.104   2.447  1.00  0.00    +0.000 HD
ATOM    183  H   GLU A  14      20.227  -4.922  -1.256  1.00  0.00    +0.000 HD
ATOM    184  H   SER A  15      25.839  -3.481   0.606  1.00  0.00    +0.000 HD
ATOM    185  H   SER A  15      26.915  -4.773  -0.645  1.00  0.00    +0.000 HD
ATOM    186  H   SER A  16      24.145  -3.454  -1.262  1.00  0.00    +0.000 HD
ATOM    187  H   ASP A  17      22.932  -1.483  -2.209  1.00  0.00    +0.000 HD
ATOM    188  H   ASP A  17      18.994  -0.311  -1.516  1.00  0.00    +0.000 HD
ATOM    189  H   LEU A  18      23.259   1.455  -5.550  1.00  0.00    +0.000 HD
ATOM    190  H   VAL A  19      20.900   5.252  -5.353  1.00  0.00    +0.000 HD
ATOM    191  H   ARG A  20      21.664   3.856  -1.266  1.00  0.00    +0.000 HD
ATOM    192  H   ARG A  20      17.269   7.461  -0.572  1.00  0.00    +0.000 HD
ATOM    193  H   ARG A  20      15.577   7.273  -0.654  1.00  0.00    +0.000 HD
ATOM    194  H   ARG A  20      14.567   5.470   0.344  1.00  0.00    +0.000 HD
ATOM    195  H   ARG A  20      15.505   4.312   1.171  1.00  0.00    +0.000 HD
ATOM    196  H   ARG A  21      22.462   6.239  -0.154  1.00  0.00    +0.000 HD
ATOM    197  H   ARG A  21      22.847   8.757   3.511  1.00  0.00    +0.000 HD
ATOM    198  H   ARG A  21      21.563   0.272   3.385  1.00  0.00    +0.000 HD
ATOM    199  H   ARG A  21      21.574   0.751   5.022  1.00  0.00    +0.000 HD
ATOM    200  H   ARG A  21      22.452   4.053   4.370  1.00  0.00    +0.000 HD
ATOM    201  H   ARG A  21      22.083   2.917   5.586  1.00  0.00    +0.000 HD
ENDROOT
TORSDOF 0
