REMARK  Name = /var/folders/yp/yjbh3p597675h2qddgqr02y00000gn/T/tmpqjtw8952.pdb
REMARK     285 UNITARY VALUES FOR THE UNIT CELL AUTOMATICALLY SET
REMARK     285 BY MDANALYSIS PDBWRITER BECAUSE UNIT CELL INFORMATION
REMARK     285 WAS MISSING.
REMARK     285 PROTEIN DATA BANK CONVENTIONS REQUIRE THAT
REMARK     285 CRYST1 RECORD IS INCLUDED, BUT THE VALUES ON
REMARK     285 THIS RECORD ARE MEANINGLESS.
REMARK     285 UNITARY VALUES FOR THE UNIT CELL AUTOMATICALLY SET
REMARK     285 BY MDANALYSIS PDBWRITER BECAUSE UNIT CELL INFORMATION
REMARK     285 WAS MISSING.
REMARK     285 PROTEIN DATA BANK CONVENTIONS REQUIRE THAT
REMARK     285 CRYST1 RECORD IS INCLUDED, BUT THE VALUES ON
REMARK     285 THIS RECORD ARE MEANINGLESS.
REMARK                            x       y       z     vdW  Elec       q    Type
REMARK                         _______ _______ _______ _____ _____    ______ ____
ROOT
ATOM      1  N   MET A   1      -9.267   0.903  -0.339  1.00  0.00    -0.123 NA
ATOM      2  CA  MET A   1     -10.279   1.235  -1.339  1.00  0.00    +0.170 C 
ATOM      3  C   MET A   1     -11.675   0.942  -0.817  1.00  0.00    +0.259 C 
ATOM      4  O   MET A   1     -11.908  -0.100  -0.206  1.00  0.00    -0.272 OA
ATOM      5  CB  MET A   1     -10.045   0.458  -2.624  1.00  0.00    +0.040 C 
ATOM      6  CG  MET A   1     -11.030   0.799  -3.731  1.00  0.00    +0.060 C 
ATOM      7  SD  MET A   1     -10.843   2.495  -4.336  1.00  0.00    -0.139 S 
ATOM      8  CE  MET A   1     -10.806   3.393  -2.789  1.00  0.00    +0.069 C 
ATOM      9  N   LYS A   2     -12.606   1.861  -1.057  1.00  0.00    -0.197 N 
ATOM     10  CA  LYS A   2     -13.894   1.835  -0.371  1.00  0.00    +0.173 C 
ATOM     11  C   LYS A   2     -14.677   0.579  -0.722  1.00  0.00    +0.262 C 
ATOM     12  O   LYS A   2     -14.763   0.205  -1.890  1.00  0.00    -0.271 OA
ATOM     13  CB  LYS A   2     -14.721   3.061  -0.724  1.00  0.00    +0.031 C 
ATOM     14  CG  LYS A   2     -15.965   3.231   0.131  1.00  0.00    +0.009 C 
ATOM     15  CD  LYS A   2     -15.625   3.352   1.607  1.00  0.00    +0.049 C 
ATOM     16  CE  LYS A   2     -14.950   2.156   2.105  1.00  0.00    +0.096 C 
ATOM     17  NZ  LYS A   2     -14.374   2.052   3.299  1.00  0.00    -0.151 NA
ATOM     18  N   LEU A   3     -15.245  -0.072   0.289  1.00  0.00    -0.196 N 
ATOM     19  CA  LEU A   3     -16.511  -0.779   0.121  1.00  0.00    +0.173 C 
ATOM     20  C   LEU A   3     -17.687   0.165   0.308  1.00  0.00    +0.262 C 
ATOM     21  O   LEU A   3     -17.614   1.105   1.099  1.00  0.00    -0.271 OA
ATOM     22  CB  LEU A   3     -16.621  -1.928   1.110  1.00  0.00    +0.031 C 
ATOM     23  CG  LEU A   3     -15.812  -3.183   0.775  1.00  0.00    +0.002 C 
ATOM     24  CD1 LEU A   3     -16.317  -4.370   1.590  1.00  0.00    +0.000 C 
ATOM     25  CD2 LEU A   3     -14.405  -3.086   1.355  1.00  0.00    +0.000 C 
ATOM     26  N   ALA A   4     -18.773  -0.083  -0.419  1.00  0.00    -0.196 N 
ATOM     27  CA  ALA A   4     -20.085   0.424  -0.026  1.00  0.00    +0.173 C 
ATOM     28  C   ALA A   4     -21.081  -0.712   0.141  1.00  0.00    +0.262 C 
ATOM     29  O   ALA A   4     -21.031  -1.700  -0.591  1.00  0.00    -0.271 OA
ATOM     30  CB  ALA A   4     -20.609   1.416  -1.051  1.00  0.00    +0.033 C 
ATOM     31  N   VAL A   5     -21.989  -0.571   1.102  1.00  0.00    -0.196 N 
ATOM     32  CA  VAL A   5     -23.337  -1.115   0.960  1.00  0.00    +0.171 C 
ATOM     33  C   VAL A   5     -24.126  -0.282  -0.036  1.00  0.00    +0.246 C 
ATOM     34  O   VAL A   5     -24.114   0.946   0.030  1.00  0.00    -0.273 OA
ATOM     35  CB  VAL A   5     -24.076  -1.154   2.287  1.00  0.00    +0.029 C 
ATOM     36  CG1 VAL A   5     -25.376  -1.947   2.159  1.00  0.00    +0.002 C 
ATOM     37  CG2 VAL A   5     -23.217  -1.827   3.355  1.00  0.00    +0.002 C 
ATOM     38  N   PHE A   6     -24.813  -0.948  -0.960  1.00  0.00    -0.273 N 
ATOM     39  CA  PHE A   6     -25.852  -0.295  -1.753  1.00  0.00    +0.145 C 
ATOM     40  C   PHE A   6     -27.128  -0.134  -0.942  1.00  0.00    +0.259 C 
ATOM     41  O   PHE A   6     -27.581  -1.079  -0.297  1.00  0.00    -0.272 OA
ATOM     42  CB  PHE A   6     -26.149  -1.090  -3.014  1.00  0.00    +0.027 C 
ATOM     43  CG  PHE A   6     -25.831  -0.355  -4.282  1.00  0.00    -0.047 C 
ATOM     44  CD1 PHE A   6     -24.526  -0.329  -4.761  1.00  0.00    -0.026 C 
ATOM     45  CE1 PHE A   6     -24.230   0.351  -5.936  1.00  0.00    -0.003 C 
ATOM     46  CD2 PHE A   6     -26.840   0.301  -4.979  1.00  0.00    -0.005 C 
ATOM     47  CE2 PHE A   6     -26.544   0.981  -6.154  1.00  0.00    +0.011 C 
ATOM     48  CZ  PHE A   6     -25.239   1.007  -6.633  1.00  0.00    +0.001 C 
ATOM     49  N   ALA A   7     -27.705   1.063  -0.973  1.00  0.00    -0.196 N 
ATOM     50  CA  ALA A   7     -28.982   1.273  -1.652  1.00  0.00    +0.173 C 
ATOM     51  C   ALA A   7     -28.819   1.184  -3.161  1.00  0.00    +0.261 C 
ATOM     52  O   ALA A   7     -29.806   1.107  -3.891  1.00  0.00    -0.271 OA
ATOM     53  CB  ALA A   7     -29.572   2.624  -1.283  1.00  0.00    +0.033 C 
ATOM     54  N   LEU A   8     -27.574   1.197  -3.627  1.00  0.00    -0.209 N 
ATOM     55  CA  LEU A   8     -27.295   1.427  -5.043  1.00  0.00    +0.063 C 
ATOM     56  C   LEU A   8     -27.454   0.144  -5.842  1.00  0.00    +0.081 C 
ATOM     57  O   LEU A   8     -27.913   0.173  -6.983  1.00  0.00    -0.248 OA
ATOM     58  CB  LEU A   8     -25.889   1.971  -5.232  1.00  0.00    +0.017 C 
ATOM     59  CG  LEU A   8     -25.681   3.442  -4.866  1.00  0.00    +0.002 C 
ATOM     60  CD1 LEU A   8     -24.193   3.773  -4.830  1.00  0.00    +0.000 C 
ATOM     61  CD2 LEU A   8     -26.008   3.681  -3.395  1.00  0.00    +0.000 C 
ATOM     62  N   LEU A   9     -27.079  -0.982  -5.243  1.00  0.00    +0.421 N 
ATOM     63  CA  LEU A   9     -25.766  -1.573  -5.489  1.00  0.00    +0.035 C 
ATOM     64  C   LEU A   9     -25.601  -1.933  -6.956  1.00  0.00    +0.224 C 
ATOM     65  O   LEU A   9     -26.495  -2.526  -7.560  1.00  0.00    -0.275 OA
ATOM     66  CB  LEU A   9     -25.567  -2.814  -4.636  1.00  0.00    -0.008 C 
ATOM     67  CG  LEU A   9     -24.429  -2.753  -3.614  1.00  0.00    +0.017 C 
ATOM     68  CD1 LEU A   9     -24.742  -1.719  -2.539  1.00  0.00    +0.084 C 
ATOM     69  CD2 LEU A   9     -23.198  -2.090  -4.222  1.00  0.00    +0.002 C 
ATOM     70  N   VAL A  10     -24.458  -1.575  -7.534  1.00  0.00    -0.199 N 
ATOM     71  CA  VAL A  10     -23.974  -2.242  -8.740  1.00  0.00    +0.173 C 
ATOM     72  C   VAL A  10     -22.849  -3.199  -8.381  1.00  0.00    +0.262 C 
ATOM     73  O   VAL A  10     -21.829  -2.787  -7.830  1.00  0.00    -0.271 OA
ATOM     74  CB  VAL A  10     -23.482  -1.247  -9.778  1.00  0.00    +0.029 C 
ATOM     75  CG1 VAL A  10     -23.256  -1.935 -11.122  1.00  0.00    +0.002 C 
ATOM     76  CG2 VAL A  10     -24.513  -0.139  -9.984  1.00  0.00    +0.002 C 
ATOM     77  N   CYS A  11     -23.034  -4.478  -8.695  1.00  0.00    -0.195 N 
ATOM     78  CA  CYS A  11     -21.961  -5.459  -8.551  1.00  0.00    +0.184 C 
ATOM     79  C   CYS A  11     -21.420  -5.873  -9.910  1.00  0.00    +0.263 C 
ATOM     80  O   CYS A  11     -22.117  -5.772 -10.918  1.00  0.00    -0.271 OA
ATOM     81  CB  CYS A  11     -22.451  -6.688  -7.804  1.00  0.00    +0.100 C 
ATOM     82  SG  CYS A  11     -22.749  -6.403  -6.045  1.00  0.00    -0.080 S 
ATOM     83  N   PHE A  12     -20.174  -6.339  -9.938  1.00  0.00    -0.196 N 
ATOM     84  CA  PHE A  12     -19.398  -6.358 -11.174  1.00  0.00    +0.177 C 
ATOM     85  C   PHE A  12     -19.800  -7.536 -12.047  1.00  0.00    +0.262 C 
ATOM     86  O   PHE A  12     -20.013  -8.639 -11.545  1.00  0.00    -0.271 OA
ATOM     87  CB  PHE A  12     -17.909  -6.430 -10.877  1.00  0.00    +0.057 C 
ATOM     88  CG  PHE A  12     -17.299  -5.110 -10.508  1.00  0.00    -0.020 A 
ATOM     89  CD1 PHE A  12     -16.599  -4.378 -11.459  1.00  0.00    -0.004 A 
ATOM     90  CE1 PHE A  12     -16.033  -3.155 -11.117  1.00  0.00    -0.000 A 
ATOM     91  CD2 PHE A  12     -17.431  -4.621  -9.214  1.00  0.00    -0.004 A 
ATOM     92  CE2 PHE A  12     -16.865  -3.398  -8.871  1.00  0.00    -0.000 A 
ATOM     93  CZ  PHE A  12     -16.167  -2.666  -9.823  1.00  0.00    -0.000 A 
ATOM     94  N   ALA A  13     -19.901  -7.304 -13.352  1.00  0.00    -0.196 N 
ATOM     95  CA  ALA A  13     -19.105  -8.052 -14.320  1.00  0.00    +0.173 C 
ATOM     96  C   ALA A  13     -18.270  -7.117 -15.180  1.00  0.00    +0.262 C 
ATOM     97  O   ALA A  13     -18.607  -5.944 -15.336  1.00  0.00    -0.271 OA
ATOM     98  CB  ALA A  13     -19.998  -8.900 -15.214  1.00  0.00    +0.033 C 
ATOM     99  N   GLU A  14     -17.179  -7.634 -15.738  1.00  0.00    -0.196 N 
ATOM    100  CA  GLU A  14     -16.770  -7.266 -17.090  1.00  0.00    +0.173 C 
ATOM    101  C   GLU A  14     -17.665  -7.918 -18.131  1.00  0.00    +0.262 C 
ATOM    102  O   GLU A  14     -18.161  -9.024 -17.924  1.00  0.00    -0.271 OA
ATOM    103  CB  GLU A  14     -15.324  -7.659 -17.346  1.00  0.00    +0.043 C 
ATOM    104  CG  GLU A  14     -15.170  -8.926 -18.171  1.00  0.00    +0.116 C 
ATOM    105  CD  GLU A  14     -13.719  -9.313 -18.411  1.00  0.00    +0.365 C 
ATOM    106  OE1 GLU A  14     -12.858  -8.995 -17.565  1.00  0.00    -0.246 OA
ATOM    107  OE2 GLU A  14     -13.444  -9.940 -19.458  1.00  0.00    -0.246 OA
ATOM    108  N   SER A  15     -17.871  -7.234 -19.253  1.00  0.00    -0.194 N 
ATOM    109  CA  SER A  15     -19.219  -6.992 -19.759  1.00  0.00    +0.205 C 
ATOM    110  C   SER A  15     -19.866  -8.278 -20.246  1.00  0.00    +0.264 C 
ATOM    111  O   SER A  15     -19.172  -9.222 -20.618  1.00  0.00    -0.271 OA
ATOM    112  CB  SER A  15     -19.194  -5.978 -20.890  1.00  0.00    +0.213 C 
ATOM    113  OG  SER A  15     -18.870  -6.603 -22.119  1.00  0.00    -0.218 OA
ATOM    114  N   SER A  16     -21.196  -8.316 -20.243  1.00  0.00    -0.194 N 
ATOM    115  CA  SER A  16     -21.924  -9.471 -20.761  1.00  0.00    +0.205 C 
ATOM    116  C   SER A  16     -21.756  -9.599 -22.267  1.00  0.00    +0.264 C 
ATOM    117  O   SER A  16     -22.332 -10.489 -22.887  1.00  0.00    -0.271 OA
ATOM    118  CB  SER A  16     -23.402  -9.368 -20.423  1.00  0.00    +0.213 C 
ATOM    119  OG  SER A  16     -23.615  -9.567 -19.036  1.00  0.00    -0.218 OA
ATOM    120  N   ASP A  17     -20.964  -8.706 -22.856  1.00  0.00    -0.196 N 
ATOM    121  CA  ASP A  17     -20.740  -8.723 -24.299  1.00  0.00    +0.184 C 
ATOM    122  C   ASP A  17     -19.419  -9.396 -24.637  1.00  0.00    +0.262 C 
ATOM    123  O   ASP A  17     -18.426  -9.205 -23.938  1.00  0.00    -0.271 OA
ATOM    124  CB  ASP A  17     -20.752  -7.313 -24.865  1.00  0.00    +0.145 C 
ATOM    125  CG  ASP A  17     -19.561  -7.022 -25.764  1.00  0.00    +0.367 C 
ATOM    126  OD1 ASP A  17     -18.968  -7.975 -26.319  1.00  0.00    -0.246 OA
ATOM    127  OD2 ASP A  17     -19.213  -5.832 -25.919  1.00  0.00    -0.246 OA
ATOM    128  N   LEU A  18     -19.410 -10.181 -25.710  1.00  0.00    -0.196 N 
ATOM    129  CA  LEU A  18     -18.175 -10.456 -26.439  1.00  0.00    +0.173 C 
ATOM    130  C   LEU A  18     -18.126  -9.667 -27.738  1.00  0.00    +0.262 C 
ATOM    131  O   LEU A  18     -19.103  -9.632 -28.485  1.00  0.00    -0.271 OA
ATOM    132  CB  LEU A  18     -18.046 -11.939 -26.742  1.00  0.00    +0.031 C 
ATOM    133  CG  LEU A  18     -17.615 -12.829 -25.574  1.00  0.00    +0.002 C 
ATOM    134  CD1 LEU A  18     -17.300 -14.235 -26.070  1.00  0.00    +0.000 C 
ATOM    135  CD2 LEU A  18     -18.806 -13.158 -24.683  1.00  0.00    +0.000 C 
ATOM    136  N   VAL A  19     -16.990  -9.032 -28.009  1.00  0.00    -0.196 N 
ATOM    137  CA  VAL A  19     -16.386  -9.086 -29.337  1.00  0.00    +0.173 C 
ATOM    138  C   VAL A  19     -15.600 -10.377 -29.492  1.00  0.00    +0.261 C 
ATOM    139  O   VAL A  19     -14.989 -10.856 -28.539  1.00  0.00    -0.271 OA
ATOM    140  CB  VAL A  19     -15.469  -7.901 -29.592  1.00  0.00    +0.029 C 
ATOM    141  CG1 VAL A  19     -16.194  -6.587 -29.309  1.00  0.00    +0.002 C 
ATOM    142  CG2 VAL A  19     -14.245  -7.969 -28.681  1.00  0.00    +0.002 C 
ATOM    143  N   ARG A  20     -15.616 -10.944 -30.696  1.00  0.00    -0.200 N 
ATOM    144  CA  ARG A  20     -14.579 -11.887 -31.106  1.00  0.00    +0.155 C 
ATOM    145  C   ARG A  20     -13.280 -11.162 -31.422  1.00  0.00    +0.291 C 
ATOM    146  O   ARG A  20     -13.275 -10.186 -32.170  1.00  0.00    -0.359 OA
ATOM    147  CB  ARG A  20     -15.023 -12.686 -32.320  1.00  0.00    +0.029 C 
ATOM    148  CG  ARG A  20     -14.119 -13.866 -32.642  1.00  0.00    +0.028 C 
ATOM    149  CD  ARG A  20     -14.564 -14.590 -33.901  1.00  0.00    +0.129 C 
ATOM    150  NE  ARG A  20     -15.586 -13.837 -34.624  1.00  0.00    -0.234 NA
ATOM    151  CZ  ARG A  20     -15.354 -13.062 -35.679  1.00  0.00    +0.284 C 
ATOM    152  NH1 ARG A  20     -14.109 -12.786 -36.057  1.00  0.00    -0.104 N 
ATOM    153  NH2 ARG A  20     -16.379 -12.558 -36.362  1.00  0.00    -0.104 N 
ATOM    154  N   ARG A  21     -12.178 -11.641 -30.855  1.00  0.00    -0.166 NA
ATOM    155  CA  ARG A  21     -10.851 -11.299 -31.361  1.00  0.00    +0.179 C 
ATOM    156  C   ARG A  21     -10.270 -12.439 -32.181  1.00  0.00    +0.380 C 
ATOM    157  O   ARG A  21     -10.189 -12.352 -33.404  1.00  0.00    -0.244 OA
ATOM    158  CB  ARG A  21      -9.905 -10.960 -30.219  1.00  0.00    +0.031 C 
ATOM    159  CG  ARG A  21     -10.238  -9.656 -29.513  1.00  0.00    +0.025 C 
ATOM    160  CD  ARG A  21      -9.854  -8.447 -30.352  1.00  0.00    +0.115 C 
ATOM    161  NE  ARG A  21     -10.942  -8.033 -31.232  1.00  0.00    -0.203 N 
ATOM    162  CZ  ARG A  21     -11.349  -8.709 -32.303  1.00  0.00    +0.277 C 
ATOM    163  NH1 ARG A  21     -12.019  -9.850 -32.172  1.00  0.00    -0.046 NA
ATOM    164  NH2 ARG A  21     -11.084  -8.235 -33.518  1.00  0.00    -0.086 N 
ATOM    165  OXT ARG A  21      -9.872 -13.465 -31.629  1.00  0.00    -0.244 OA
ATOM    166  H   MET A   1      -9.443   1.434   0.514  1.00  0.00    +0.000 HD
ATOM    167  H   MET A   1      -8.342   1.136  -0.700  1.00  0.00    +0.000 HD
ATOM    168  H   LYS A   2     -12.422   2.574  -1.711  1.00  0.00    +0.000 HD
ATOM    169  H   LYS A   2     -14.383   2.817   3.919  1.00  0.00    +0.000 HD
ATOM    170  H   LEU A   3     -14.803  -0.077   1.169  1.00  0.00    +0.000 HD
ATOM    171  H   ALA A   4     -18.691  -0.620  -1.240  1.00  0.00    +0.000 HD
ATOM    172  H   VAL A   5     -21.748  -0.091   1.927  1.00  0.00    +0.000 HD
ATOM    173  H   ALA A   7     -27.264   1.823  -0.531  1.00  0.00    +0.000 HD
ATOM    174  H   LEU A   8     -26.825   1.048  -3.007  1.00  0.00    +0.000 HD
ATOM    175  H   LEU A   8     -28.678  -0.421  -7.039  1.00  0.00    +0.000 HD
ATOM    176  H   VAL A  10     -23.927  -0.845  -7.141  1.00  0.00    +0.000 HD
ATOM    177  H   CYS A  11     -23.912  -4.769  -9.032  1.00  0.00    +0.000 HD
ATOM    178  H   CYS A  11     -23.729  -5.472  -5.896  1.00  0.00    +0.000 HD
ATOM    179  H   PHE A  12     -19.767  -6.678  -9.108  1.00  0.00    +0.000 HD
ATOM    180  H   ALA A  13     -20.526  -6.615 -13.671  1.00  0.00    +0.000 HD
ATOM    181  H   GLU A  14     -16.636  -8.278 -15.229  1.00  0.00    +0.000 HD
ATOM    182  H   GLU A  14     -13.110  -8.525 -16.795  1.00  0.00    +0.000 HD
ATOM    183  H   SER A  15     -17.099  -6.884 -19.753  1.00  0.00    +0.000 HD
ATOM    184  H   SER A  15     -17.990  -7.008 -22.053  1.00  0.00    +0.000 HD
ATOM    185  H   SER A  16     -21.699  -7.550 -19.884  1.00  0.00    +0.000 HD
ATOM    186  H   SER A  16     -23.139  -8.886 -18.536  1.00  0.00    +0.000 HD
ATOM    187  H   ASP A  17     -20.519  -8.020 -22.307  1.00  0.00    +0.000 HD
ATOM    188  H   ASP A  17     -19.683  -5.146 -25.487  1.00  0.00    +0.000 HD
ATOM    189  H   LEU A  18     -20.252 -10.585 -26.019  1.00  0.00    +0.000 HD
ATOM    190  H   VAL A  19     -16.546  -8.514 -27.298  1.00  0.00    +0.000 HD
ATOM    191  H   ARG A  20     -16.341 -10.722 -31.323  1.00  0.00    +0.000 HD
ATOM    192  H   ARG A  20     -13.948 -12.212 -36.840  1.00  0.00    +0.000 HD
ATOM    193  H   ARG A  20     -13.349 -13.157 -35.554  1.00  0.00    +0.000 HD
ATOM    194  H   ARG A  20     -17.302 -12.760 -36.085  1.00  0.00    +0.000 HD
ATOM    195  H   ARG A  20     -16.214 -11.983 -37.144  1.00  0.00    +0.000 HD
ATOM    196  H   ARG A  21     -12.249 -12.658 -30.898  1.00  0.00    +0.000 HD
ATOM    197  H   ARG A  21     -10.487 -11.577 -33.839  1.00  0.00    +0.000 HD
ATOM    198  H   ARG A  21     -11.409  -7.194 -31.017  1.00  0.00    +0.000 HD
ATOM    199  H   ARG A  21     -11.381  -8.730 -34.316  1.00  0.00    +0.000 HD
ATOM    200  H   ARG A  21     -10.589  -7.390 -33.619  1.00  0.00    +0.000 HD
ENDROOT
TORSDOF 0
