REMARK  Name = /var/folders/yp/yjbh3p597675h2qddgqr02y00000gn/T/tmpdhwvw_2a.pdb
REMARK   1 CREATED WITH OPENMM 8.6.1, 2026-10-07
REMARK                            x       y       z     vdW  Elec       q    Type
REMARK                         _______ _______ _______ _____ _____    ______ ____
ROOT
ATOM      1  N   MET A   1      -7.760   8.556 -26.828  1.00  0.00    -0.123 NA
ATOM      2  CA  MET A   1      -8.569   8.913 -25.646  1.00  0.00    +0.170 C 
ATOM      3  C   MET A   1     -10.063   8.910 -25.984  1.00  0.00    +0.259 C 
ATOM      4  O   MET A   1     -10.453   9.306 -27.082  1.00  0.00    -0.272 OA
ATOM      5  CB  MET A   1      -8.183  10.274 -25.046  1.00  0.00    +0.040 C 
ATOM      6  CG  MET A   1      -8.733  11.458 -25.851  1.00  0.00    +0.060 C 
ATOM      7  SD  MET A   1      -7.929  13.031 -25.478  1.00  0.00    -0.139 S 
ATOM      8  CE  MET A   1      -9.041  13.662 -24.198  1.00  0.00    +0.069 C 
ATOM      9  N   LYS A   2     -10.920   8.499 -25.054  1.00  0.00    -0.197 N 
ATOM     10  CA  LYS A   2     -10.572   7.510 -24.024  1.00  0.00    +0.173 C 
ATOM     11  C   LYS A   2     -10.796   6.102 -24.574  1.00  0.00    +0.262 C 
ATOM     12  O   LYS A   2     -11.748   5.869 -25.322  1.00  0.00    -0.271 OA
ATOM     13  CB  LYS A   2     -11.386   7.752 -22.754  1.00  0.00    +0.031 C 
ATOM     14  CG  LYS A   2     -10.528   7.512 -21.501  1.00  0.00    +0.004 C 
ATOM     15  CD  LYS A   2     -11.355   7.677 -20.228  1.00  0.00    +0.021 C 
ATOM     16  CE  LYS A   2     -12.387   6.552 -20.120  1.00  0.00    +0.109 C 
ATOM     17  NZ  LYS A   2     -13.788   7.008 -20.175  1.00  0.00    -0.131 NA
ATOM     18  N   LEU A   3      -9.940   5.166 -24.172  1.00  0.00    -0.196 N 
ATOM     19  CA  LEU A   3     -10.230   3.744 -24.311  1.00  0.00    +0.173 C 
ATOM     20  C   LEU A   3     -11.193   3.317 -23.207  1.00  0.00    +0.262 C 
ATOM     21  O   LEU A   3     -10.892   3.377 -22.015  1.00  0.00    -0.271 OA
ATOM     22  CB  LEU A   3      -8.921   2.931 -24.332  1.00  0.00    +0.031 C 
ATOM     23  CG  LEU A   3      -8.590   1.995 -23.133  1.00  0.00    +0.002 C 
ATOM     24  CD1 LEU A   3      -7.114   2.069 -22.812  1.00  0.00    +0.000 C 
ATOM     25  CD2 LEU A   3      -8.884   0.521 -23.406  1.00  0.00    +0.000 C 
ATOM     26  N   ALA A   4     -12.364   2.862 -23.609  1.00  0.00    -0.196 N 
ATOM     27  CA  ALA A   4     -12.990   1.759 -22.918  1.00  0.00    +0.173 C 
ATOM     28  C   ALA A   4     -12.234   0.463 -23.256  1.00  0.00    +0.262 C 
ATOM     29  O   ALA A   4     -11.660   0.337 -24.337  1.00  0.00    -0.271 OA
ATOM     30  CB  ALA A   4     -14.441   1.721 -23.390  1.00  0.00    +0.033 C 
ATOM     31  N   VAL A   5     -12.322  -0.537 -22.387  1.00  0.00    -0.196 N 
ATOM     32  CA  VAL A   5     -12.587  -1.911 -22.849  1.00  0.00    +0.173 C 
ATOM     33  C   VAL A   5     -14.054  -2.041 -23.259  1.00  0.00    +0.262 C 
ATOM     34  O   VAL A   5     -14.425  -2.893 -24.059  1.00  0.00    -0.271 OA
ATOM     35  CB  VAL A   5     -12.249  -2.935 -21.753  1.00  0.00    +0.029 C 
ATOM     36  CG1 VAL A   5     -10.782  -3.337 -21.818  1.00  0.00    +0.002 C 
ATOM     37  CG2 VAL A   5     -12.574  -2.425 -20.338  1.00  0.00    +0.002 C 
ATOM     38  N   PHE A   6     -14.904  -1.173 -22.704  1.00  0.00    -0.196 N 
ATOM     39  CA  PHE A   6     -16.347  -1.323 -22.728  1.00  0.00    +0.177 C 
ATOM     40  C   PHE A   6     -16.990  -1.113 -24.101  1.00  0.00    +0.262 C 
ATOM     41  O   PHE A   6     -18.152  -1.457 -24.311  1.00  0.00    -0.271 OA
ATOM     42  CB  PHE A   6     -17.052  -0.448 -21.693  1.00  0.00    +0.057 C 
ATOM     43  CG  PHE A   6     -16.607  -0.721 -20.282  1.00  0.00    -0.020 A 
ATOM     44  CD1 PHE A   6     -15.607   0.063 -19.685  1.00  0.00    -0.004 A 
ATOM     45  CE1 PHE A   6     -15.202  -0.207 -18.370  1.00  0.00    -0.000 A 
ATOM     46  CD2 PHE A   6     -17.216  -1.756 -19.556  1.00  0.00    -0.004 A 
ATOM     47  CE2 PHE A   6     -16.800  -2.037 -18.247  1.00  0.00    -0.000 A 
ATOM     48  CZ  PHE A   6     -15.793  -1.261 -17.654  1.00  0.00    -0.000 A 
ATOM     49  N   ALA A   7     -16.247  -0.506 -25.024  1.00  0.00    -0.196 N 
ATOM     50  CA  ALA A   7     -16.727  -0.189 -26.362  1.00  0.00    +0.173 C 
ATOM     51  C   ALA A   7     -16.731  -1.423 -27.271  1.00  0.00    +0.262 C 
ATOM     52  O   ALA A   7     -17.307  -1.380 -28.358  1.00  0.00    -0.271 OA
ATOM     53  CB  ALA A   7     -15.878   0.935 -26.954  1.00  0.00    +0.033 C 
ATOM     54  N   LEU A   8     -16.121  -2.529 -26.826  1.00  0.00    -0.196 N 
ATOM     55  CA  LEU A   8     -16.508  -3.867 -27.270  1.00  0.00    +0.173 C 
ATOM     56  C   LEU A   8     -17.770  -4.320 -26.529  1.00  0.00    +0.262 C 
ATOM     57  O   LEU A   8     -18.685  -4.861 -27.146  1.00  0.00    -0.271 OA
ATOM     58  CB  LEU A   8     -15.361  -4.856 -27.005  1.00  0.00    +0.031 C 
ATOM     59  CG  LEU A   8     -14.510  -5.198 -28.242  1.00  0.00    +0.002 C 
ATOM     60  CD1 LEU A   8     -14.696  -6.667 -28.621  1.00  0.00    +0.000 C 
ATOM     61  CD2 LEU A   8     -13.024  -5.071 -27.925  1.00  0.00    +0.000 C 
ATOM     62  N   LEU A   9     -17.843  -4.104 -25.212  1.00  0.00    -0.196 N 
ATOM     63  CA  LEU A   9     -17.450  -5.155 -24.275  1.00  0.00    +0.173 C 
ATOM     64  C   LEU A   9     -18.433  -6.316 -24.364  1.00  0.00    +0.262 C 
ATOM     65  O   LEU A   9     -19.638  -6.145 -24.164  1.00  0.00    -0.271 OA
ATOM     66  CB  LEU A   9     -17.504  -4.682 -22.813  1.00  0.00    +0.031 C 
ATOM     67  CG  LEU A   9     -16.478  -5.319 -21.853  1.00  0.00    +0.002 C 
ATOM     68  CD1 LEU A   9     -16.792  -4.979 -20.402  1.00  0.00    +0.000 C 
ATOM     69  CD2 LEU A   9     -15.042  -4.886 -22.014  1.00  0.00    +0.000 C 
ATOM     70  N   VAL A  10     -17.869  -7.508 -24.506  1.00  0.00    -0.196 N 
ATOM     71  CA  VAL A  10     -18.319  -8.666 -23.750  1.00  0.00    +0.173 C 
ATOM     72  C   VAL A  10     -17.097  -9.286 -23.077  1.00  0.00    +0.262 C 
ATOM     73  O   VAL A  10     -16.277  -9.916 -23.742  1.00  0.00    -0.271 OA
ATOM     74  CB  VAL A  10     -19.039  -9.669 -24.666  1.00  0.00    +0.029 C 
ATOM     75  CG1 VAL A  10     -19.293 -10.972 -23.944  1.00  0.00    +0.002 C 
ATOM     76  CG2 VAL A  10     -20.366  -9.105 -25.173  1.00  0.00    +0.002 C 
ATOM     77  N   CYS A  11     -16.985  -9.138 -21.755  1.00  0.00    -0.195 N 
ATOM     78  CA  CYS A  11     -16.159 -10.034 -20.933  1.00  0.00    +0.184 C 
ATOM     79  C   CYS A  11     -16.913 -11.323 -20.567  1.00  0.00    +0.263 C 
ATOM     80  O   CYS A  11     -16.436 -12.125 -19.766  1.00  0.00    -0.271 OA
ATOM     81  CB  CYS A  11     -15.694  -9.322 -19.657  1.00  0.00    +0.100 C 
ATOM     82  SG  CYS A  11     -14.494  -8.015 -20.017  1.00  0.00    -0.080 S 
ATOM     83  N   PHE A  12     -18.114 -11.514 -21.107  1.00  0.00    -0.196 N 
ATOM     84  CA  PHE A  12     -18.955 -12.679 -20.862  1.00  0.00    +0.177 C 
ATOM     85  C   PHE A  12     -18.366 -13.919 -21.536  1.00  0.00    +0.262 C 
ATOM     86  O   PHE A  12     -18.146 -13.931 -22.747  1.00  0.00    -0.271 OA
ATOM     87  CB  PHE A  12     -20.415 -12.456 -21.299  1.00  0.00    +0.057 C 
ATOM     88  CG  PHE A  12     -20.997 -11.125 -20.873  1.00  0.00    -0.020 A 
ATOM     89  CD1 PHE A  12     -21.381 -10.145 -21.806  1.00  0.00    -0.004 A 
ATOM     90  CE1 PHE A  12     -21.830  -8.891 -21.393  1.00  0.00    -0.000 A 
ATOM     91  CD2 PHE A  12     -21.207 -10.886 -19.509  1.00  0.00    -0.004 A 
ATOM     92  CE2 PHE A  12     -21.747  -9.661 -19.091  1.00  0.00    -0.000 A 
ATOM     93  CZ  PHE A  12     -22.032  -8.656 -20.029  1.00  0.00    -0.000 A 
ATOM     94  N   ALA A  13     -18.087 -14.982 -20.790  1.00  0.00    -0.196 N 
ATOM     95  CA  ALA A  13     -19.135 -15.941 -20.446  1.00  0.00    +0.173 C 
ATOM     96  C   ALA A  13     -20.215 -15.384 -19.516  1.00  0.00    +0.262 C 
ATOM     97  O   ALA A  13     -19.943 -14.561 -18.640  1.00  0.00    -0.271 OA
ATOM     98  CB  ALA A  13     -18.483 -17.176 -19.817  1.00  0.00    +0.033 C 
ATOM     99  N   GLU A  14     -21.446 -15.860 -19.681  1.00  0.00    -0.196 N 
ATOM    100  CA  GLU A  14     -22.463 -15.712 -18.639  1.00  0.00    +0.173 C 
ATOM    101  C   GLU A  14     -22.162 -16.632 -17.457  1.00  0.00    +0.262 C 
ATOM    102  O   GLU A  14     -21.531 -17.684 -17.609  1.00  0.00    -0.271 OA
ATOM    103  CB  GLU A  14     -23.864 -16.008 -19.183  1.00  0.00    +0.043 C 
ATOM    104  CG  GLU A  14     -24.465 -14.786 -19.879  1.00  0.00    +0.116 C 
ATOM    105  CD  GLU A  14     -25.932 -15.029 -20.244  1.00  0.00    +0.365 C 
ATOM    106  OE1 GLU A  14     -26.814 -14.928 -19.357  1.00  0.00    -0.246 OA
ATOM    107  OE2 GLU A  14     -26.220 -15.316 -21.430  1.00  0.00    -0.246 OA
ATOM    108  N   SER A  15     -22.636 -16.246 -16.272  1.00  0.00    -0.194 N 
ATOM    109  CA  SER A  15     -22.354 -16.996 -15.049  1.00  0.00    +0.205 C 
ATOM    110  C   SER A  15     -22.968 -18.383 -15.075  1.00  0.00    +0.264 C 
ATOM    111  O   SER A  15     -22.438 -19.282 -14.440  1.00  0.00    -0.271 OA
ATOM    112  CB  SER A  15     -22.905 -16.260 -13.825  1.00  0.00    +0.213 C 
ATOM    113  OG  SER A  15     -24.325 -16.241 -13.839  1.00  0.00    -0.218 OA
ATOM    114  N   SER A  16     -24.102 -18.549 -15.764  1.00  0.00    -0.194 N 
ATOM    115  CA  SER A  16     -25.017 -19.670 -15.527  1.00  0.00    +0.205 C 
ATOM    116  C   SER A  16     -24.447 -21.018 -15.959  1.00  0.00    +0.264 C 
ATOM    117  O   SER A  16     -25.008 -22.060 -15.621  1.00  0.00    -0.271 OA
ATOM    118  CB  SER A  16     -26.357 -19.421 -16.215  1.00  0.00    +0.213 C 
ATOM    119  OG  SER A  16     -26.204 -19.414 -17.623  1.00  0.00    -0.218 OA
ATOM    120  N   ASP A  17     -23.296 -20.998 -16.633  1.00  0.00    -0.196 N 
ATOM    121  CA  ASP A  17     -22.345 -22.101 -16.642  1.00  0.00    +0.184 C 
ATOM    122  C   ASP A  17     -21.094 -21.765 -15.831  1.00  0.00    +0.262 C 
ATOM    123  O   ASP A  17     -19.984 -21.676 -16.357  1.00  0.00    -0.271 OA
ATOM    124  CB  ASP A  17     -21.983 -22.518 -18.065  1.00  0.00    +0.145 C 
ATOM    125  CG  ASP A  17     -23.178 -22.955 -18.902  1.00  0.00    +0.367 C 
ATOM    126  OD1 ASP A  17     -24.307 -23.110 -18.383  1.00  0.00    -0.246 OA
ATOM    127  OD2 ASP A  17     -22.983 -23.182 -20.118  1.00  0.00    -0.246 OA
ATOM    128  N   LEU A  18     -21.280 -21.650 -14.523  1.00  0.00    -0.196 N 
ATOM    129  CA  LEU A  18     -20.385 -22.200 -13.530  1.00  0.00    +0.173 C 
ATOM    130  C   LEU A  18     -21.217 -22.935 -12.481  1.00  0.00    +0.262 C 
ATOM    131  O   LEU A  18     -22.126 -22.367 -11.874  1.00  0.00    -0.271 OA
ATOM    132  CB  LEU A  18     -19.506 -21.104 -12.908  1.00  0.00    +0.031 C 
ATOM    133  CG  LEU A  18     -18.422 -21.642 -11.957  1.00  0.00    +0.002 C 
ATOM    134  CD1 LEU A  18     -18.614 -21.140 -10.529  1.00  0.00    +0.000 C 
ATOM    135  CD2 LEU A  18     -17.031 -21.165 -12.349  1.00  0.00    +0.000 C 
ATOM    136  N   VAL A  19     -20.839 -24.186 -12.243  1.00  0.00    -0.196 N 
ATOM    137  CA  VAL A  19     -20.262 -24.581 -10.952  1.00  0.00    +0.173 C 
ATOM    138  C   VAL A  19     -18.917 -25.232 -11.247  1.00  0.00    +0.262 C 
ATOM    139  O   VAL A  19     -18.823 -26.217 -11.975  1.00  0.00    -0.271 OA
ATOM    140  CB  VAL A  19     -21.191 -25.536 -10.208  1.00  0.00    +0.029 C 
ATOM    141  CG1 VAL A  19     -20.597 -26.284  -9.028  1.00  0.00    +0.002 C 
ATOM    142  CG2 VAL A  19     -22.398 -24.780  -9.650  1.00  0.00    +0.002 C 
ATOM    143  N   ARG A  20     -17.837 -24.682 -10.716  1.00  0.00    -0.196 N 
ATOM    144  CA  ARG A  20     -17.367 -25.081  -9.394  1.00  0.00    +0.173 C 
ATOM    145  C   ARG A  20     -18.064 -24.441  -8.210  1.00  0.00    +0.262 C 
ATOM    146  O   ARG A  20     -18.750 -25.120  -7.471  1.00  0.00    -0.271 OA
ATOM    147  CB  ARG A  20     -15.888 -24.780  -9.397  1.00  0.00    +0.033 C 
ATOM    148  CG  ARG A  20     -15.031 -25.249  -8.190  1.00  0.00    +0.029 C 
ATOM    149  CD  ARG A  20     -15.137 -26.724  -7.888  1.00  0.00    +0.129 C 
ATOM    150  NE  ARG A  20     -15.667 -27.429  -9.060  1.00  0.00    -0.234 NA
ATOM    151  CZ  ARG A  20     -15.470 -28.656  -9.429  1.00  0.00    +0.284 C 
ATOM    152  NH1 ARG A  20     -14.550 -29.376  -8.871  1.00  0.00    -0.104 N 
ATOM    153  NH2 ARG A  20     -16.208 -29.155 -10.379  1.00  0.00    -0.104 N 
ATOM    154  N   ARG A  21     -17.831 -23.173  -7.927  1.00  0.00    -0.194 N 
ATOM    155  CA  ARG A  21     -16.840 -22.820  -6.899  1.00  0.00    +0.198 C 
ATOM    156  C   ARG A  21     -17.523 -22.290  -5.654  1.00  0.00    +0.384 C 
ATOM    157  O   ARG A  21     -17.161 -22.726  -4.544  1.00  0.00    -0.244 OA
ATOM    158  CB  ARG A  21     -15.825 -21.808  -7.473  1.00  0.00    +0.035 C 
ATOM    159  CG  ARG A  21     -14.510 -22.159  -8.224  1.00  0.00    +0.029 C 
ATOM    160  CD  ARG A  21     -13.231 -22.274  -7.432  1.00  0.00    +0.129 C 
ATOM    161  NE  ARG A  21     -13.035 -23.511  -6.672  1.00  0.00    -0.234 NA
ATOM    162  CZ  ARG A  21     -13.416 -23.703  -5.429  1.00  0.00    +0.284 C 
ATOM    163  NH1 ARG A  21     -14.291 -22.942  -4.845  1.00  0.00    -0.104 N 
ATOM    164  NH2 ARG A  21     -12.903 -24.673  -4.735  1.00  0.00    -0.104 N 
ATOM    165  OXT ARG A  21     -18.425 -21.446  -5.784  1.00  0.00    -0.244 OA
ATOM    166  H   MET A   1      -6.771   8.565 -26.578  1.00  0.00    +0.000 HD
ATOM    167  H   MET A   1      -7.928   9.234 -27.572  1.00  0.00    +0.000 HD
ATOM    168  H   LYS A   2     -11.831   8.875 -25.055  1.00  0.00    +0.000 HD
ATOM    169  H   LYS A   2     -13.978   7.620 -19.382  1.00  0.00    +0.000 HD
ATOM    170  H   LYS A   2     -14.410   6.200 -20.138  1.00  0.00    +0.000 HD
ATOM    171  H   LEU A   3      -9.086   5.443 -23.769  1.00  0.00    +0.000 HD
ATOM    172  H   ALA A   4     -12.812   3.276 -24.382  1.00  0.00    +0.000 HD
ATOM    173  H   VAL A   5     -12.208  -0.359 -21.425  1.00  0.00    +0.000 HD
ATOM    174  H   PHE A   6     -14.528  -0.384 -22.249  1.00  0.00    +0.000 HD
ATOM    175  H   ALA A   7     -15.323  -0.257 -24.790  1.00  0.00    +0.000 HD
ATOM    176  H   LEU A   8     -15.386  -2.438 -26.177  1.00  0.00    +0.000 HD
ATOM    177  H   LEU A   9     -18.162  -3.237 -24.873  1.00  0.00    +0.000 HD
ATOM    178  H   VAL A  10     -17.124  -7.611 -25.140  1.00  0.00    +0.000 HD
ATOM    179  H   CYS A  11     -17.473  -8.405 -21.315  1.00  0.00    +0.000 HD
ATOM    180  H   CYS A  11     -15.069  -7.080 -20.819  1.00  0.00    +0.000 HD
ATOM    181  H   PHE A  12     -18.459 -10.819 -21.714  1.00  0.00    +0.000 HD
ATOM    182  H   ALA A  13     -17.169 -15.125 -20.466  1.00  0.00    +0.000 HD
ATOM    183  H   GLU A  14     -21.678 -16.321 -20.519  1.00  0.00    +0.000 HD
ATOM    184  H   GLU A  14     -26.572 -14.712 -18.479  1.00  0.00    +0.000 HD
ATOM    185  H   SER A  15     -23.191 -15.434 -16.219  1.00  0.00    +0.000 HD
ATOM    186  H   SER A  15     -24.634 -15.778 -14.633  1.00  0.00    +0.000 HD
ATOM    187  H   SER A  16     -24.332 -17.891 -16.459  1.00  0.00    +0.000 HD
ATOM    188  H   SER A  16     -25.593 -18.706 -17.879  1.00  0.00    +0.000 HD
ATOM    189  H   ASP A  17     -23.077 -20.192 -17.154  1.00  0.00    +0.000 HD
ATOM    190  H   ASP A  17     -24.432 -22.935 -17.471  1.00  0.00    +0.000 HD
ATOM    191  H   LEU A  18     -22.074 -21.160 -14.210  1.00  0.00    +0.000 HD
ATOM    192  H   VAL A  19     -20.948 -24.864 -12.949  1.00  0.00    +0.000 HD
ATOM    193  H   ARG A  20     -17.345 -23.994 -11.219  1.00  0.00    +0.000 HD
ATOM    194  H   ARG A  20     -13.995 -28.996  -8.153  1.00  0.00    +0.000 HD
ATOM    195  H   ARG A  20     -14.406 -30.305  -9.165  1.00  0.00    +0.000 HD
ATOM    196  H   ARG A  20     -16.071 -30.085 -10.671  1.00  0.00    +0.000 HD
ATOM    197  H   ARG A  20     -16.902 -28.603 -10.806  1.00  0.00    +0.000 HD
ATOM    198  H   ARG A  21     -18.320 -22.464  -8.403  1.00  0.00    +0.000 HD
ATOM    199  H   ARG A  21     -14.702 -22.196  -5.339  1.00  0.00    +0.000 HD
ATOM    200  H   ARG A  21     -14.543 -23.110  -3.908  1.00  0.00    +0.000 HD
ATOM    201  H   ARG A  21     -12.237 -25.271  -5.143  1.00  0.00    +0.000 HD
ATOM    202  H   ARG A  21     -13.181 -24.809  -3.801  1.00  0.00    +0.000 HD
ATOM    203  H   ARG A  21     -18.666 -21.145  -6.638  1.00  0.00    +0.000 HD
ENDROOT
TORSDOF 0
