REMARK  Name = /var/folders/yp/yjbh3p597675h2qddgqr02y00000gn/T/tmpknklgnkr.pdb
REMARK     285 UNITARY VALUES FOR THE UNIT CELL AUTOMATICALLY SET
REMARK     285 BY MDANALYSIS PDBWRITER BECAUSE UNIT CELL INFORMATION
REMARK     285 WAS MISSING.
REMARK     285 PROTEIN DATA BANK CONVENTIONS REQUIRE THAT
REMARK     285 CRYST1 RECORD IS INCLUDED, BUT THE VALUES ON
REMARK     285 THIS RECORD ARE MEANINGLESS.
REMARK     285 UNITARY VALUES FOR THE UNIT CELL AUTOMATICALLY SET
REMARK     285 BY MDANALYSIS PDBWRITER BECAUSE UNIT CELL INFORMATION
REMARK     285 WAS MISSING.
REMARK     285 PROTEIN DATA BANK CONVENTIONS REQUIRE THAT
REMARK     285 CRYST1 RECORD IS INCLUDED, BUT THE VALUES ON
REMARK     285 THIS RECORD ARE MEANINGLESS.
REMARK                            x       y       z     vdW  Elec       q    Type
REMARK                         _______ _______ _______ _____ _____    ______ ____
ROOT
ATOM      1  N   MET A   1     -17.575   1.816 -10.036  1.00  0.00    -0.198 NA
ATOM      2  CA  MET A   1     -16.278   1.889  -9.368  1.00  0.00    +0.152 C 
ATOM      3  C   MET A   1     -15.250   2.576 -10.251  1.00  0.00    +0.258 C 
ATOM      4  O   MET A   1     -15.264   2.411 -11.470  1.00  0.00    -0.272 OA
ATOM      5  CB  MET A   1     -15.782   0.502  -8.996  1.00  0.00    +0.038 C 
ATOM      6  CG  MET A   1     -16.687  -0.227  -8.014  1.00  0.00    +0.061 C 
ATOM      7  SD  MET A   1     -18.391  -0.368  -8.607  1.00  0.00    -0.121 S 
ATOM      8  CE  MET A   1     -18.347   0.753 -10.001  1.00  0.00    +0.146 C 
ATOM      9  N   LYS A   2     -14.356   3.347  -9.637  1.00  0.00    -0.197 N 
ATOM     10  CA  LYS A   2     -14.293   4.783  -9.888  1.00  0.00    +0.173 C 
ATOM     11  C   LYS A   2     -13.817   5.072 -11.302  1.00  0.00    +0.261 C 
ATOM     12  O   LYS A   2     -13.133   4.250 -11.910  1.00  0.00    -0.271 OA
ATOM     13  CB  LYS A   2     -13.370   5.466  -8.891  1.00  0.00    +0.031 C 
ATOM     14  CG  LYS A   2     -12.036   4.764  -8.708  1.00  0.00    +0.009 C 
ATOM     15  CD  LYS A   2     -11.183   5.440  -7.648  1.00  0.00    +0.049 C 
ATOM     16  CE  LYS A   2     -11.474   6.867  -7.550  1.00  0.00    +0.096 C 
ATOM     17  NZ  LYS A   2     -12.457   7.393  -6.825  1.00  0.00    -0.151 NA
ATOM     18  N   LEU A   3     -14.176   6.240 -11.826  1.00  0.00    -0.202 N 
ATOM     19  CA  LEU A   3     -13.266   7.007 -12.672  1.00  0.00    +0.134 C 
ATOM     20  C   LEU A   3     -12.139   7.609 -11.848  1.00  0.00    +0.206 C 
ATOM     21  O   LEU A   3     -12.359   8.060 -10.725  1.00  0.00    -0.206 OA
ATOM     22  CB  LEU A   3     -14.011   8.115 -13.398  1.00  0.00    +0.024 C 
ATOM     23  CG  LEU A   3     -15.054   7.666 -14.424  1.00  0.00    +0.002 C 
ATOM     24  CD1 LEU A   3     -14.609   8.045 -15.830  1.00  0.00    +0.000 C 
ATOM     25  CD2 LEU A   3     -16.303   8.536 -14.332  1.00  0.00    +0.000 C 
ATOM     26  N   ALA A   4     -10.932   7.613 -12.404  1.00  0.00    -0.240 NA
ATOM     27  CA  ALA A   4      -9.943   8.634 -12.068  1.00  0.00    +0.138 C 
ATOM     28  C   ALA A   4     -10.362   9.996 -12.597  1.00  0.00    +0.256 C 
ATOM     29  O   ALA A   4     -11.019  10.090 -13.633  1.00  0.00    -0.272 OA
ATOM     30  CB  ALA A   4      -8.578   8.270 -12.628  1.00  0.00    +0.027 C 
ATOM     31  N   VAL A   5      -9.982  11.055 -11.886  1.00  0.00    -0.197 N 
ATOM     32  CA  VAL A   5      -9.300  12.184 -12.511  1.00  0.00    +0.173 C 
ATOM     33  C   VAL A   5      -7.986  12.450 -11.794  1.00  0.00    +0.265 C 
ATOM     34  O   VAL A   5      -7.948  13.187 -10.812  1.00  0.00    -0.271 OA
ATOM     35  CB  VAL A   5     -10.151  13.443 -12.492  1.00  0.00    +0.029 C 
ATOM     36  CG1 VAL A   5     -11.215  13.393 -13.586  1.00  0.00    +0.002 C 
ATOM     37  CG2 VAL A   5     -10.863  13.584 -11.148  1.00  0.00    +0.002 C 
ATOM     38  N   PHE A   6      -6.907  11.848 -12.285  1.00  0.00    -0.181 NA
ATOM     39  CA  PHE A   6      -6.554  11.954 -13.698  1.00  0.00    +0.067 C 
ATOM     40  C   PHE A   6      -7.550  11.198 -14.562  1.00  0.00    +0.054 C 
ATOM     41  O   PHE A   6      -8.460  11.797 -15.134  1.00  0.00    -0.220 OA
ATOM     42  CB  PHE A   6      -5.155  11.413 -13.950  1.00  0.00    +0.012 C 
ATOM     43  CG  PHE A   6      -4.701  11.548 -15.372  1.00  0.00    -0.013 A 
ATOM     44  CD1 PHE A   6      -4.952  10.528 -16.282  1.00  0.00    +0.033 A 
ATOM     45  CE1 PHE A   6      -4.531  10.654 -17.601  1.00  0.00    +0.140 A 
ATOM     46  CD2 PHE A   6      -4.027  12.693 -15.782  1.00  0.00    -0.004 A 
ATOM     47  CE2 PHE A   6      -3.605  12.819 -17.100  1.00  0.00    +0.003 A 
ATOM     48  CZ  PHE A   6      -3.858  11.798 -18.010  1.00  0.00    +0.037 A 
ATOM     49  N   ALA A   7      -7.381   9.883 -14.657  1.00  0.00    -0.213 NA
ATOM     50  CA  ALA A   7      -7.165   9.236 -15.949  1.00  0.00    +0.145 C 
ATOM     51  C   ALA A   7      -8.459   9.157 -16.744  1.00  0.00    +0.268 C 
ATOM     52  O   ALA A   7      -8.433   8.946 -17.956  1.00  0.00    -0.184 OA
ATOM     53  CB  ALA A   7      -6.597   7.839 -15.764  1.00  0.00    +0.081 C 
ATOM     54  N   LEU A   8      -9.588   9.327 -16.064  1.00  0.00    -0.167 NA
ATOM     55  CA  LEU A   8     -10.872   8.884 -16.599  1.00  0.00    +0.154 C 
ATOM     56  C   LEU A   8     -11.269   9.710 -17.812  1.00  0.00    +0.258 C 
ATOM     57  O   LEU A   8     -11.737   9.166 -18.811  1.00  0.00    -0.272 OA
ATOM     58  CB  LEU A   8     -11.959   8.983 -15.541  1.00  0.00    +0.028 C 
ATOM     59  CG  LEU A   8     -12.275   7.695 -14.778  1.00  0.00    +0.021 C 
ATOM     60  CD1 LEU A   8     -13.761   7.627 -14.447  1.00  0.00    +0.003 C 
ATOM     61  CD2 LEU A   8     -11.725   7.766 -13.357  1.00  0.00    +0.109 C 
ATOM     62  N   LEU A   9     -11.082  11.024 -17.726  1.00  0.00    -0.197 N 
ATOM     63  CA  LEU A   9     -10.250  11.738 -18.690  1.00  0.00    +0.171 C 
ATOM     64  C   LEU A   9      -8.787  11.366 -18.522  1.00  0.00    +0.248 C 
ATOM     65  O   LEU A   9      -8.006  11.455 -19.469  1.00  0.00    -0.273 OA
ATOM     66  CB  LEU A   9     -10.413  13.242 -18.532  1.00  0.00    +0.031 C 
ATOM     67  CG  LEU A   9     -11.302  13.935 -19.568  1.00  0.00    +0.002 C 
ATOM     68  CD1 LEU A   9     -10.711  13.771 -20.964  1.00  0.00    +0.000 C 
ATOM     69  CD2 LEU A   9     -11.189  15.450 -19.443  1.00  0.00    +0.000 C 
ATOM     70  N   VAL A  10      -8.411  10.949 -17.316  1.00  0.00    -0.238 N 
ATOM     71  CA  VAL A  10      -7.089  11.260 -16.782  1.00  0.00    +0.151 C 
ATOM     72  C   VAL A  10      -6.036  10.435 -17.503  1.00  0.00    +0.261 C 
ATOM     73  O   VAL A  10      -5.003  10.961 -17.916  1.00  0.00    -0.461 OA
ATOM     74  CB  VAL A  10      -7.005  10.995 -15.286  1.00  0.00    +0.092 C 
ATOM     75  CG1 VAL A  10      -5.639  11.405 -14.743  1.00  0.00    +0.068 C 
ATOM     76  CG2 VAL A  10      -8.068  11.799 -14.543  1.00  0.00    +0.184 C 
ATOM     77  N   CYS A  11      -6.296   9.139 -17.656  1.00  0.00    -0.170 NA
ATOM     78  CA  CYS A  11      -5.261   8.128 -17.461  1.00  0.00    +0.165 C 
ATOM     79  C   CYS A  11      -4.262   8.145 -18.607  1.00  0.00    +0.259 C 
ATOM     80  O   CYS A  11      -3.155   7.624 -18.480  1.00  0.00    -0.272 OA
ATOM     81  CB  CYS A  11      -5.878   6.742 -17.346  1.00  0.00    +0.084 C 
ATOM     82  SG  CYS A  11      -6.984   6.552 -15.929  1.00  0.00    -0.137 S 
ATOM     83  N   PHE A  12      -4.653   8.744 -19.729  1.00  0.00    -0.196 N 
ATOM     84  CA  PHE A  12      -4.174   8.300 -21.034  1.00  0.00    +0.177 C 
ATOM     85  C   PHE A  12      -3.063   9.206 -21.537  1.00  0.00    +0.262 C 
ATOM     86  O   PHE A  12      -2.387   8.884 -22.513  1.00  0.00    -0.271 OA
ATOM     87  CB  PHE A  12      -5.307   8.275 -22.047  1.00  0.00    +0.057 C 
ATOM     88  CG  PHE A  12      -6.377   7.271 -21.737  1.00  0.00    -0.020 A 
ATOM     89  CD1 PHE A  12      -6.165   5.924 -22.007  1.00  0.00    -0.004 A 
ATOM     90  CE1 PHE A  12      -7.157   4.993 -21.718  1.00  0.00    -0.000 A 
ATOM     91  CD2 PHE A  12      -7.580   7.688 -21.178  1.00  0.00    -0.004 A 
ATOM     92  CE2 PHE A  12      -8.571   6.757 -20.889  1.00  0.00    -0.000 A 
ATOM     93  CZ  PHE A  12      -8.360   5.411 -21.159  1.00  0.00    -0.000 A 
ATOM     94  N   ALA A  13      -2.872  10.342 -20.872  1.00  0.00    -0.196 N 
ATOM     95  CA  ALA A  13      -1.685  11.164 -21.094  1.00  0.00    +0.173 C 
ATOM     96  C   ALA A  13      -0.752  11.112 -19.895  1.00  0.00    +0.262 C 
ATOM     97  O   ALA A  13      -1.200  10.936 -18.763  1.00  0.00    -0.271 OA
ATOM     98  CB  ALA A  13      -2.073  12.607 -21.375  1.00  0.00    +0.033 C 
ATOM     99  N   GLU A  14       0.545  11.265 -20.142  1.00  0.00    -0.196 N 
ATOM    100  CA  GLU A  14       1.295  12.394 -19.598  1.00  0.00    +0.173 C 
ATOM    101  C   GLU A  14       0.985  13.675 -20.354  1.00  0.00    +0.262 C 
ATOM    102  O   GLU A  14       0.916  13.675 -21.582  1.00  0.00    -0.271 OA
ATOM    103  CB  GLU A  14       2.789  12.125 -19.646  1.00  0.00    +0.043 C 
ATOM    104  CG  GLU A  14       3.241  11.002 -18.727  1.00  0.00    +0.116 C 
ATOM    105  CD  GLU A  14       4.752  10.849 -18.663  1.00  0.00    +0.365 C 
ATOM    106  OE1 GLU A  14       5.468  11.576 -19.387  1.00  0.00    -0.246 OA
ATOM    107  OE2 GLU A  14       5.225   9.997 -17.880  1.00  0.00    -0.246 OA
ATOM    108  N   SER A  15       0.796  14.770 -19.621  1.00  0.00    -0.194 N 
ATOM    109  CA  SER A  15       1.016  16.102 -20.175  1.00  0.00    +0.205 C 
ATOM    110  C   SER A  15       2.492  16.356 -20.435  1.00  0.00    +0.264 C 
ATOM    111  O   SER A  15       3.350  15.772 -19.775  1.00  0.00    -0.271 OA
ATOM    112  CB  SER A  15       0.476  17.169 -19.237  1.00  0.00    +0.213 C 
ATOM    113  OG  SER A  15       1.319  17.318 -18.107  1.00  0.00    -0.218 OA
ATOM    114  N   SER A  16       2.787  17.226 -21.395  1.00  0.00    -0.194 N 
ATOM    115  CA  SER A  16       4.016  17.108 -22.176  1.00  0.00    +0.205 C 
ATOM    116  C   SER A  16       5.245  17.179 -21.285  1.00  0.00    +0.264 C 
ATOM    117  O   SER A  16       6.338  16.789 -21.694  1.00  0.00    -0.271 OA
ATOM    118  CB  SER A  16       4.089  18.202 -23.230  1.00  0.00    +0.213 C 
ATOM    119  OG  SER A  16       3.304  17.863 -24.359  1.00  0.00    -0.218 OA
ATOM    120  N   ASP A  17       5.070  17.679 -20.065  1.00  0.00    -0.196 N 
ATOM    121  CA  ASP A  17       5.940  18.727 -19.540  1.00  0.00    +0.184 C 
ATOM    122  C   ASP A  17       7.126  18.131 -18.798  1.00  0.00    +0.262 C 
ATOM    123  O   ASP A  17       8.015  18.858 -18.358  1.00  0.00    -0.271 OA
ATOM    124  CB  ASP A  17       5.174  19.656 -18.612  1.00  0.00    +0.145 C 
ATOM    125  CG  ASP A  17       6.058  20.703 -17.954  1.00  0.00    +0.367 C 
ATOM    126  OD1 ASP A  17       7.285  20.704 -18.196  1.00  0.00    -0.246 OA
ATOM    127  OD2 ASP A  17       5.521  21.532 -17.189  1.00  0.00    -0.246 OA
ATOM    128  N   LEU A  18       7.139  16.809 -18.660  1.00  0.00    -0.196 N 
ATOM    129  CA  LEU A  18       8.253  16.123 -18.011  1.00  0.00    +0.173 C 
ATOM    130  C   LEU A  18       9.148  15.450 -19.040  1.00  0.00    +0.262 C 
ATOM    131  O   LEU A  18       8.663  14.770 -19.940  1.00  0.00    -0.271 OA
ATOM    132  CB  LEU A  18       7.745  15.085 -17.024  1.00  0.00    +0.031 C 
ATOM    133  CG  LEU A  18       7.252  15.620 -15.677  1.00  0.00    +0.002 C 
ATOM    134  CD1 LEU A  18       7.523  14.605 -14.575  1.00  0.00    +0.000 C 
ATOM    135  CD2 LEU A  18       5.729  15.619 -15.626  1.00  0.00    +0.000 C 
ATOM    136  N   VAL A  19      10.457  15.641 -18.907  1.00  0.00    -0.196 N 
ATOM    137  CA  VAL A  19      11.322  15.815 -20.070  1.00  0.00    +0.173 C 
ATOM    138  C   VAL A  19      12.381  14.724 -20.090  1.00  0.00    +0.262 C 
ATOM    139  O   VAL A  19      12.922  14.358 -19.048  1.00  0.00    -0.271 OA
ATOM    140  CB  VAL A  19      11.997  17.177 -20.078  1.00  0.00    +0.029 C 
ATOM    141  CG1 VAL A  19      13.115  17.220 -21.116  1.00  0.00    +0.002 C 
ATOM    142  CG2 VAL A  19      10.986  18.269 -20.427  1.00  0.00    +0.002 C 
ATOM    143  N   ARG A  20      12.681  14.206 -21.279  1.00  0.00    -0.196 N 
ATOM    144  CA  ARG A  20      13.280  12.880 -21.399  1.00  0.00    +0.173 C 
ATOM    145  C   ARG A  20      14.687  12.865 -20.826  1.00  0.00    +0.262 C 
ATOM    146  O   ARG A  20      15.232  11.802 -20.533  1.00  0.00    -0.271 OA
ATOM    147  CB  ARG A  20      13.317  12.432 -22.852  1.00  0.00    +0.033 C 
ATOM    148  CG  ARG A  20      13.965  13.439 -23.787  1.00  0.00    +0.029 C 
ATOM    149  CD  ARG A  20      15.379  13.027 -24.168  1.00  0.00    +0.128 C 
ATOM    150  NE  ARG A  20      16.377  13.695 -23.339  1.00  0.00    -0.240 NA
ATOM    151  CZ  ARG A  20      17.187  14.664 -23.760  1.00  0.00    +0.237 C 
ATOM    152  NH1 ARG A  20      17.000  15.235 -24.946  1.00  0.00    -0.089 N 
ATOM    153  NH2 ARG A  20      18.193  15.062 -22.986  1.00  0.00    -0.205 N 
ATOM    154  N   ARG A  21      15.279  14.046 -20.666  1.00  0.00    -0.194 N 
ATOM    155  CA  ARG A  21      16.710  14.149 -20.400  1.00  0.00    +0.200 C 
ATOM    156  C   ARG A  21      16.982  14.210 -18.905  1.00  0.00    +0.384 C 
ATOM    157  O   ARG A  21      17.753  13.411 -18.376  1.00  0.00    -0.244 OA
ATOM    158  CB  ARG A  21      17.301  15.376 -21.073  1.00  0.00    +0.057 C 
ATOM    159  CG  ARG A  21      18.445  15.065 -22.023  1.00  0.00    +0.122 C 
ATOM    160  CD  ARG A  21      19.312  13.926 -21.510  1.00  0.00    +0.150 C 
ATOM    161  NE  ARG A  21      20.716  14.119 -21.855  1.00  0.00    -0.232 NA
ATOM    162  CZ  ARG A  21      21.676  14.429 -20.987  1.00  0.00    +0.284 C 
ATOM    163  NH1 ARG A  21      21.437  14.416 -19.679  1.00  0.00    -0.104 N 
ATOM    164  NH2 ARG A  21      22.885  14.755 -21.432  1.00  0.00    -0.104 N 
ATOM    165  OXT ARG A  21      16.435  15.060 -18.205  1.00  0.00    -0.244 OA
ATOM    166  H   MET A   1     -18.132   2.579  -9.650  1.00  0.00    +0.000 HD
ATOM    167  H   LYS A   2     -13.724   2.940  -9.002  1.00  0.00    +0.000 HD
ATOM    168  H   LYS A   2     -13.051   6.807  -6.303  1.00  0.00    +0.000 HD
ATOM    169  H   LEU A   3     -15.075   6.594 -11.640  1.00  0.00    +0.000 HD
ATOM    170  H   LEU A   3     -13.300   7.958 -10.514  1.00  0.00    +0.000 HD
ATOM    171  H   VAL A   5     -10.166  11.077 -10.919  1.00  0.00    +0.000 HD
ATOM    172  H   PHE A   6      -9.091  12.534 -15.106  1.00  0.00    +0.000 HD
ATOM    173  H   ALA A   7      -6.761   9.576 -13.908  1.00  0.00    +0.000 HD
ATOM    174  H   ALA A   7      -8.447   7.989 -18.117  1.00  0.00    +0.000 HD
ATOM    175  H   LEU A   8      -9.464   8.844 -15.174  1.00  0.00    +0.000 HD
ATOM    176  H   LEU A   9     -11.515  11.525 -16.998  1.00  0.00    +0.000 HD
ATOM    177  H   CYS A  11      -7.045   8.916 -16.999  1.00  0.00    +0.000 HD
ATOM    178  H   PHE A  12      -5.279   9.503 -19.677  1.00  0.00    +0.000 HD
ATOM    179  H   ALA A  13      -3.544  10.636 -20.216  1.00  0.00    +0.000 HD
ATOM    180  H   GLU A  14       1.011  10.604 -20.704  1.00  0.00    +0.000 HD
ATOM    181  H   GLU A  14       5.071  12.202 -19.960  1.00  0.00    +0.000 HD
ATOM    182  H   SER A  15       0.501  14.679 -18.686  1.00  0.00    +0.000 HD
ATOM    183  H   SER A  15       1.360  16.479 -17.622  1.00  0.00    +0.000 HD
ATOM    184  H   SER A  16       2.165  17.965 -21.584  1.00  0.00    +0.000 HD
ATOM    185  H   SER A  16       2.378  17.759 -24.090  1.00  0.00    +0.000 HD
ATOM    186  H   ASP A  17       4.337  17.336 -19.504  1.00  0.00    +0.000 HD
ATOM    187  H   ASP A  17       4.598  21.497 -17.034  1.00  0.00    +0.000 HD
ATOM    188  H   LEU A  18       6.382  16.281 -19.002  1.00  0.00    +0.000 HD
ATOM    189  H   VAL A  19      10.851  15.667 -18.005  1.00  0.00    +0.000 HD
ATOM    190  H   ARG A  20      12.494  14.727 -22.093  1.00  0.00    +0.000 HD
ATOM    191  H   ARG A  20      16.256  14.943 -25.522  1.00  0.00    +0.000 HD
ATOM    192  H   ARG A  20      17.604  15.951 -25.249  1.00  0.00    +0.000 HD
ATOM    193  H   ARG A  20      18.900  15.479 -23.528  1.00  0.00    +0.000 HD
ATOM    194  H   ARG A  21      14.741  14.867 -20.729  1.00  0.00    +0.000 HD
ATOM    195  H   ARG A  21      20.543  14.175 -19.344  1.00  0.00    +0.000 HD
ATOM    196  H   ARG A  21      22.153  14.647 -19.045  1.00  0.00    +0.000 HD
ATOM    197  H   ARG A  21      23.068  14.766 -22.400  1.00  0.00    +0.000 HD
ATOM    198  H   ARG A  21      23.599  14.985 -20.794  1.00  0.00    +0.000 HD
ATOM    199  H   ARG A  21      15.844  15.676 -18.592  1.00  0.00    +0.000 HD
ENDROOT
TORSDOF 0
