REMARK  Name = /var/folders/yp/yjbh3p597675h2qddgqr02y00000gn/T/tmpy1s3pi_8.pdb
REMARK     285 UNITARY VALUES FOR THE UNIT CELL AUTOMATICALLY SET
REMARK     285 BY MDANALYSIS PDBWRITER BECAUSE UNIT CELL INFORMATION
REMARK     285 WAS MISSING.
REMARK     285 PROTEIN DATA BANK CONVENTIONS REQUIRE THAT
REMARK     285 CRYST1 RECORD IS INCLUDED, BUT THE VALUES ON
REMARK     285 THIS RECORD ARE MEANINGLESS.
REMARK     285 UNITARY VALUES FOR THE UNIT CELL AUTOMATICALLY SET
REMARK     285 BY MDANALYSIS PDBWRITER BECAUSE UNIT CELL INFORMATION
REMARK     285 WAS MISSING.
REMARK     285 PROTEIN DATA BANK CONVENTIONS REQUIRE THAT
REMARK     285 CRYST1 RECORD IS INCLUDED, BUT THE VALUES ON
REMARK     285 THIS RECORD ARE MEANINGLESS.
REMARK                            x       y       z     vdW  Elec       q    Type
REMARK                         _______ _______ _______ _____ _____    ______ ____
ROOT
ATOM      1  N   MET A   1      11.770  23.038   3.335  1.00  0.00    -0.123 NA
ATOM      2  CA  MET A   1      10.898  22.236   4.189  1.00  0.00    +0.170 C 
ATOM      3  C   MET A   1      10.085  23.121   5.119  1.00  0.00    +0.259 C 
ATOM      4  O   MET A   1      10.478  24.249   5.411  1.00  0.00    -0.272 OA
ATOM      5  CB  MET A   1      11.708  21.246   5.011  1.00  0.00    +0.040 C 
ATOM      6  CG  MET A   1      12.368  20.158   4.179  1.00  0.00    +0.060 C 
ATOM      7  SD  MET A   1      11.833  18.496   4.653  1.00  0.00    -0.139 S 
ATOM      8  CE  MET A   1      10.231  18.426   3.858  1.00  0.00    +0.069 C 
ATOM      9  N   LYS A   2       8.949  22.611   5.585  1.00  0.00    -0.197 N 
ATOM     10  CA  LYS A   2       7.898  23.466   6.127  1.00  0.00    +0.173 C 
ATOM     11  C   LYS A   2       8.295  24.030   7.482  1.00  0.00    +0.262 C 
ATOM     12  O   LYS A   2       9.160  23.474   8.159  1.00  0.00    -0.271 OA
ATOM     13  CB  LYS A   2       6.591  22.700   6.261  1.00  0.00    +0.031 C 
ATOM     14  CG  LYS A   2       5.802  22.601   4.966  1.00  0.00    +0.009 C 
ATOM     15  CD  LYS A   2       4.787  21.471   5.007  1.00  0.00    +0.049 C 
ATOM     16  CE  LYS A   2       3.956  21.536   6.205  1.00  0.00    +0.096 C 
ATOM     17  NZ  LYS A   2       2.845  20.829   6.398  1.00  0.00    -0.151 NA
ATOM     18  N   LEU A   3       7.665  25.132   7.879  1.00  0.00    -0.196 N 
ATOM     19  CA  LEU A   3       6.994  25.200   9.173  1.00  0.00    +0.173 C 
ATOM     20  C   LEU A   3       5.488  25.309   8.997  1.00  0.00    +0.262 C 
ATOM     21  O   LEU A   3       4.988  26.324   8.515  1.00  0.00    -0.271 OA
ATOM     22  CB  LEU A   3       7.498  26.385   9.979  1.00  0.00    +0.031 C 
ATOM     23  CG  LEU A   3       6.888  26.560  11.372  1.00  0.00    +0.002 C 
ATOM     24  CD1 LEU A   3       5.380  26.339  11.321  1.00  0.00    +0.000 C 
ATOM     25  CD2 LEU A   3       6.893  28.031  11.778  1.00  0.00    +0.000 C 
ATOM     26  N   ALA A   4       4.764  24.264   9.387  1.00  0.00    -0.196 N 
ATOM     27  CA  ALA A   4       3.329  24.192   9.128  1.00  0.00    +0.173 C 
ATOM     28  C   ALA A   4       2.571  25.198   9.979  1.00  0.00    +0.262 C 
ATOM     29  O   ALA A   4       1.520  25.694   9.574  1.00  0.00    -0.271 OA
ATOM     30  CB  ALA A   4       2.800  22.794   9.400  1.00  0.00    +0.033 C 
ATOM     31  N   VAL A   5       3.103  25.502  11.159  1.00  0.00    -0.196 N 
ATOM     32  CA  VAL A   5       2.340  25.360  12.395  1.00  0.00    +0.173 C 
ATOM     33  C   VAL A   5       1.446  26.573  12.592  1.00  0.00    +0.262 C 
ATOM     34  O   VAL A   5       1.882  27.707  12.402  1.00  0.00    -0.271 OA
ATOM     35  CB  VAL A   5       3.248  25.198  13.605  1.00  0.00    +0.029 C 
ATOM     36  CG1 VAL A   5       2.764  24.051  14.491  1.00  0.00    +0.002 C 
ATOM     37  CG2 VAL A   5       4.675  24.882  13.162  1.00  0.00    +0.002 C 
ATOM     38  N   PHE A   6       0.193  26.336  12.971  1.00  0.00    -0.196 N 
ATOM     39  CA  PHE A   6      -0.818  27.389  12.958  1.00  0.00    +0.173 C 
ATOM     40  C   PHE A   6      -0.512  28.443  14.008  1.00  0.00    +0.262 C 
ATOM     41  O   PHE A   6      -0.098  28.116  15.119  1.00  0.00    -0.271 OA
ATOM     42  CB  PHE A   6      -2.203  26.813  13.204  1.00  0.00    +0.033 C 
ATOM     43  CG  PHE A   6      -2.834  26.205  11.986  1.00  0.00    +0.021 C 
ATOM     44  CD1 PHE A   6      -2.358  24.998  11.487  1.00  0.00    +0.002 C 
ATOM     45  CE1 PHE A   6      -2.942  24.434  10.359  1.00  0.00    +0.000 C 
ATOM     46  CD2 PHE A   6      -3.892  26.851  11.356  1.00  0.00    +0.078 C 
ATOM     47  CE2 PHE A   6      -4.476  26.286  10.227  1.00  0.00    +0.104 C 
ATOM     48  CZ  PHE A   6      -4.001  25.078   9.729  1.00  0.00    +0.000 C 
ATOM     49  N   ALA A   7      -0.714  29.710  13.657  1.00  0.00    -0.196 N 
ATOM     50  CA  ALA A   7      -2.051  30.300  13.674  1.00  0.00    +0.173 C 
ATOM     51  C   ALA A   7      -2.940  29.666  12.616  1.00  0.00    +0.262 C 
ATOM     52  O   ALA A   7      -4.165  29.763  12.691  1.00  0.00    -0.271 OA
ATOM     53  CB  ALA A   7      -1.980  31.801  13.446  1.00  0.00    +0.033 C 
ATOM     54  N   LEU A   8      -2.325  29.019  11.630  1.00  0.00    -0.196 N 
ATOM     55  CA  LEU A   8      -2.665  29.266  10.231  1.00  0.00    +0.170 C 
ATOM     56  C   LEU A   8      -3.778  28.338   9.772  1.00  0.00    +0.232 C 
ATOM     57  O   LEU A   8      -4.224  28.419   8.628  1.00  0.00    -0.274 OA
ATOM     58  CB  LEU A   8      -1.447  29.078   9.341  1.00  0.00    +0.031 C 
ATOM     59  CG  LEU A   8      -0.489  30.267   9.253  1.00  0.00    +0.002 C 
ATOM     60  CD1 LEU A   8       0.457  30.096   8.069  1.00  0.00    +0.000 C 
ATOM     61  CD2 LEU A   8       0.537  30.216  10.380  1.00  0.00    +0.000 C 
ATOM     62  N   LEU A   9      -4.225  27.457  10.662  1.00  0.00    -0.320 NA
ATOM     63  CA  LEU A   9      -5.517  26.797  10.495  1.00  0.00    +0.135 C 
ATOM     64  C   LEU A   9      -6.656  27.736  10.859  1.00  0.00    +0.258 C 
ATOM     65  O   LEU A   9      -6.607  28.408  11.889  1.00  0.00    -0.272 OA
ATOM     66  CB  LEU A   9      -5.596  25.546  11.353  1.00  0.00    +0.028 C 
ATOM     67  CG  LEU A   9      -4.893  24.305  10.800  1.00  0.00    +0.002 C 
ATOM     68  CD1 LEU A   9      -5.405  23.052  11.499  1.00  0.00    +0.000 C 
ATOM     69  CD2 LEU A   9      -3.444  24.257  11.270  1.00  0.00    +0.000 C 
ATOM     70  N   VAL A  10      -7.683  27.784  10.017  1.00  0.00    -0.196 N 
ATOM     71  CA  VAL A  10      -7.569  28.437   8.716  1.00  0.00    +0.173 C 
ATOM     72  C   VAL A  10      -8.431  29.689   8.693  1.00  0.00    +0.262 C 
ATOM     73  O   VAL A  10      -8.966  30.099   9.722  1.00  0.00    -0.271 OA
ATOM     74  CB  VAL A  10      -7.981  27.516   7.580  1.00  0.00    +0.029 C 
ATOM     75  CG1 VAL A  10      -6.761  26.831   6.970  1.00  0.00    +0.002 C 
ATOM     76  CG2 VAL A  10      -8.924  26.430   8.092  1.00  0.00    +0.002 C 
ATOM     77  N   CYS A  11      -8.568  30.297   7.517  1.00  0.00    -0.195 N 
ATOM     78  CA  CYS A  11      -9.576  31.332   7.310  1.00  0.00    +0.184 C 
ATOM     79  C   CYS A  11     -10.958  30.720   7.155  1.00  0.00    +0.263 C 
ATOM     80  O   CYS A  11     -11.962  31.431   7.166  1.00  0.00    -0.271 OA
ATOM     81  CB  CYS A  11      -9.248  32.164   6.081  1.00  0.00    +0.100 C 
ATOM     82  SG  CYS A  11      -7.759  33.173   6.258  1.00  0.00    -0.080 S 
ATOM     83  N   PHE A  12     -11.012  29.400   7.007  1.00  0.00    -0.196 N 
ATOM     84  CA  PHE A  12     -12.089  28.761   6.256  1.00  0.00    +0.177 C 
ATOM     85  C   PHE A  12     -13.332  28.610   7.116  1.00  0.00    +0.262 C 
ATOM     86  O   PHE A  12     -14.217  29.465   7.092  1.00  0.00    -0.271 OA
ATOM     87  CB  PHE A  12     -11.657  27.397   5.742  1.00  0.00    +0.057 C 
ATOM     88  CG  PHE A  12     -11.092  27.422   4.353  1.00  0.00    -0.020 A 
ATOM     89  CD1 PHE A  12     -10.010  26.613   4.029  1.00  0.00    -0.004 A 
ATOM     90  CE1 PHE A  12      -9.486  26.635   2.741  1.00  0.00    -0.000 A 
ATOM     91  CD2 PHE A  12     -11.650  28.255   3.391  1.00  0.00    -0.004 A 
ATOM     92  CE2 PHE A  12     -11.126  28.279   2.103  1.00  0.00    -0.000 A 
ATOM     93  CZ  PHE A  12     -10.044  27.468   1.779  1.00  0.00    -0.000 A 
ATOM     94  N   ALA A  13     -13.401  27.524   7.880  1.00  0.00    -0.196 N 
ATOM     95  CA  ALA A  13     -13.681  26.209   7.308  1.00  0.00    +0.173 C 
ATOM     96  C   ALA A  13     -14.981  25.642   7.857  1.00  0.00    +0.262 C 
ATOM     97  O   ALA A  13     -15.450  26.063   8.914  1.00  0.00    -0.271 OA
ATOM     98  CB  ALA A  13     -12.544  25.242   7.596  1.00  0.00    +0.033 C 
ATOM     99  N   GLU A  14     -15.563  24.687   7.139  1.00  0.00    -0.196 N 
ATOM    100  CA  GLU A  14     -16.645  23.876   7.690  1.00  0.00    +0.173 C 
ATOM    101  C   GLU A  14     -16.114  22.843   8.671  1.00  0.00    +0.262 C 
ATOM    102  O   GLU A  14     -14.940  22.479   8.619  1.00  0.00    -0.271 OA
ATOM    103  CB  GLU A  14     -17.414  23.173   6.582  1.00  0.00    +0.043 C 
ATOM    104  CG  GLU A  14     -16.856  21.807   6.220  1.00  0.00    +0.116 C 
ATOM    105  CD  GLU A  14     -17.683  21.079   5.171  1.00  0.00    +0.365 C 
ATOM    106  OE1 GLU A  14     -17.514  21.358   3.965  1.00  0.00    -0.246 OA
ATOM    107  OE2 GLU A  14     -18.505  20.222   5.562  1.00  0.00    -0.246 OA
ATOM    108  N   SER A  15     -16.977  22.374   9.567  1.00  0.00    -0.194 N 
ATOM    109  CA  SER A  15     -16.877  21.008  10.076  1.00  0.00    +0.205 C 
ATOM    110  C   SER A  15     -17.351  19.999   9.043  1.00  0.00    +0.264 C 
ATOM    111  O   SER A  15     -18.234  20.296   8.239  1.00  0.00    -0.271 OA
ATOM    112  CB  SER A  15     -17.690  20.850  11.350  1.00  0.00    +0.213 C 
ATOM    113  OG  SER A  15     -19.077  20.828  11.062  1.00  0.00    -0.218 OA
ATOM    114  N   SER A  16     -16.765  18.804   9.064  1.00  0.00    -0.194 N 
ATOM    115  CA  SER A  16     -17.472  17.604   8.625  1.00  0.00    +0.205 C 
ATOM    116  C   SER A  16     -18.569  17.221   9.605  1.00  0.00    +0.264 C 
ATOM    117  O   SER A  16     -19.362  16.322   9.335  1.00  0.00    -0.271 OA
ATOM    118  CB  SER A  16     -16.505  16.442   8.465  1.00  0.00    +0.213 C 
ATOM    119  OG  SER A  16     -16.000  16.033   9.723  1.00  0.00    -0.218 OA
ATOM    120  N   ASP A  17     -18.615  17.905  10.746  1.00  0.00    -0.196 N 
ATOM    121  CA  ASP A  17     -19.238  17.348  11.942  1.00  0.00    +0.184 C 
ATOM    122  C   ASP A  17     -20.725  17.664  11.980  1.00  0.00    +0.262 C 
ATOM    123  O   ASP A  17     -21.350  17.598  13.036  1.00  0.00    -0.271 OA
ATOM    124  CB  ASP A  17     -18.574  17.882  13.200  1.00  0.00    +0.145 C 
ATOM    125  CG  ASP A  17     -17.101  17.514  13.297  1.00  0.00    +0.367 C 
ATOM    126  OD1 ASP A  17     -16.647  16.613  12.558  1.00  0.00    -0.246 OA
ATOM    127  OD2 ASP A  17     -16.391  18.131  14.120  1.00  0.00    -0.246 OA
ATOM    128  N   LEU A  18     -21.289  18.010  10.826  1.00  0.00    -0.196 N 
ATOM    129  CA  LEU A  18     -22.728  18.231  10.721  1.00  0.00    +0.173 C 
ATOM    130  C   LEU A  18     -23.327  17.381   9.611  1.00  0.00    +0.262 C 
ATOM    131  O   LEU A  18     -23.369  17.801   8.456  1.00  0.00    -0.271 OA
ATOM    132  CB  LEU A  18     -23.031  19.696  10.458  1.00  0.00    +0.031 C 
ATOM    133  CG  LEU A  18     -24.481  20.135  10.682  1.00  0.00    +0.002 C 
ATOM    134  CD1 LEU A  18     -24.518  21.506  11.347  1.00  0.00    +0.000 C 
ATOM    135  CD2 LEU A  18     -25.121  19.318  11.797  1.00  0.00    +0.000 C 
ATOM    136  N   VAL A  19     -23.793  16.185   9.959  1.00  0.00    -0.196 N 
ATOM    137  CA  VAL A  19     -25.214  15.864   9.864  1.00  0.00    +0.173 C 
ATOM    138  C   VAL A  19     -25.862  15.991  11.233  1.00  0.00    +0.262 C 
ATOM    139  O   VAL A  19     -25.325  15.505  12.226  1.00  0.00    -0.271 OA
ATOM    140  CB  VAL A  19     -25.443  14.464   9.322  1.00  0.00    +0.029 C 
ATOM    141  CG1 VAL A  19     -25.080  14.392   7.839  1.00  0.00    +0.002 C 
ATOM    142  CG2 VAL A  19     -24.574  13.454  10.070  1.00  0.00    +0.002 C 
ATOM    143  N   ARG A  20     -27.019  16.645  11.286  1.00  0.00    -0.196 N 
ATOM    144  CA  ARG A  20     -28.136  16.150  12.084  1.00  0.00    +0.173 C 
ATOM    145  C   ARG A  20     -28.619  14.803  11.569  1.00  0.00    +0.262 C 
ATOM    146  O   ARG A  20     -28.781  13.861  12.342  1.00  0.00    -0.271 OA
ATOM    147  CB  ARG A  20     -29.291  17.139  12.074  1.00  0.00    +0.033 C 
ATOM    148  CG  ARG A  20     -30.508  16.670  12.854  1.00  0.00    +0.029 C 
ATOM    149  CD  ARG A  20     -31.665  17.649  12.737  1.00  0.00    +0.129 C 
ATOM    150  NE  ARG A  20     -31.265  19.003  13.106  1.00  0.00    -0.234 NA
ATOM    151  CZ  ARG A  20     -32.052  19.892  13.704  1.00  0.00    +0.284 C 
ATOM    152  NH1 ARG A  20     -33.301  19.573  14.039  1.00  0.00    -0.104 N 
ATOM    153  NH2 ARG A  20     -31.588  21.108  13.973  1.00  0.00    -0.104 N 
ATOM    154  N   ARG A  21     -28.847  14.711  10.262  1.00  0.00    -0.194 N 
ATOM    155  CA  ARG A  21     -29.988  13.967   9.742  1.00  0.00    +0.198 C 
ATOM    156  C   ARG A  21     -29.672  12.484   9.639  1.00  0.00    +0.384 C 
ATOM    157  O   ARG A  21     -30.222  11.784   8.791  1.00  0.00    -0.244 OA
ATOM    158  CB  ARG A  21     -30.402  14.493   8.375  1.00  0.00    +0.035 C 
ATOM    159  CG  ARG A  21     -29.230  14.878   7.487  1.00  0.00    +0.029 C 
ATOM    160  CD  ARG A  21     -29.659  15.074   6.041  1.00  0.00    +0.129 C 
ATOM    161  NE  ARG A  21     -30.863  14.308   5.729  1.00  0.00    -0.234 NA
ATOM    162  CZ  ARG A  21     -31.874  14.755   4.990  1.00  0.00    +0.284 C 
ATOM    163  NH1 ARG A  21     -31.871  15.997   4.514  1.00  0.00    -0.104 N 
ATOM    164  NH2 ARG A  21     -32.899  13.949   4.724  1.00  0.00    -0.104 N 
ATOM    165  OXT ARG A  21     -28.861  11.965  10.404  1.00  0.00    -0.244 OA
ATOM    166  H   MET A   1      11.205  23.694   2.794  1.00  0.00    +0.000 HD
ATOM    167  H   MET A   1      12.281  22.425   2.700  1.00  0.00    +0.000 HD
ATOM    168  H   LYS A   2       8.813  21.636   5.564  1.00  0.00    +0.000 HD
ATOM    169  H   LYS A   2       2.531  20.207   5.703  1.00  0.00    +0.000 HD
ATOM    170  H   LEU A   3       7.652  25.919   7.288  1.00  0.00    +0.000 HD
ATOM    171  H   ALA A   4       5.205  23.523   9.860  1.00  0.00    +0.000 HD
ATOM    172  H   VAL A   5       4.030  25.829  11.200  1.00  0.00    +0.000 HD
ATOM    173  H   PHE A   6      -0.057  25.431  13.266  1.00  0.00    +0.000 HD
ATOM    174  H   ALA A   7       0.053  30.261  13.379  1.00  0.00    +0.000 HD
ATOM    175  H   LEU A   8      -1.627  28.361  11.848  1.00  0.00    +0.000 HD
ATOM    176  H   VAL A  10      -8.538  27.371  10.276  1.00  0.00    +0.000 HD
ATOM    177  H   CYS A  11      -7.977  30.044   6.772  1.00  0.00    +0.000 HD
ATOM    178  H   CYS A  11      -6.683  32.363   6.447  1.00  0.00    +0.000 HD
ATOM    179  H   PHE A  12     -10.311  28.840   7.413  1.00  0.00    +0.000 HD
ATOM    180  H   ALA A  13     -13.259  27.608   8.850  1.00  0.00    +0.000 HD
ATOM    181  H   GLU A  14     -15.259  24.523   6.217  1.00  0.00    +0.000 HD
ATOM    182  H   GLU A  14     -18.598  20.046   6.477  1.00  0.00    +0.000 HD
ATOM    183  H   SER A  15     -17.698  22.958   9.896  1.00  0.00    +0.000 HD
ATOM    184  H   SER A  15     -19.332  21.662  10.639  1.00  0.00    +0.000 HD
ATOM    185  H   SER A  16     -15.837  18.728   9.381  1.00  0.00    +0.000 HD
ATOM    186  H   SER A  16     -15.524  16.771  10.136  1.00  0.00    +0.000 HD
ATOM    187  H   ASP A  17     -18.220  18.806  10.783  1.00  0.00    +0.000 HD
ATOM    188  H   ASP A  17     -17.212  16.174  11.954  1.00  0.00    +0.000 HD
ATOM    189  H   LEU A  18     -20.725  18.119  10.027  1.00  0.00    +0.000 HD
ATOM    190  H   VAL A  19     -23.167  15.501  10.289  1.00  0.00    +0.000 HD
ATOM    191  H   ARG A  20     -27.123  17.481  10.777  1.00  0.00    +0.000 HD
ATOM    192  H   ARG A  20     -33.877  20.237  14.482  1.00  0.00    +0.000 HD
ATOM    193  H   ARG A  20     -33.648  18.672  13.844  1.00  0.00    +0.000 HD
ATOM    194  H   ARG A  20     -32.167  21.770  14.416  1.00  0.00    +0.000 HD
ATOM    195  H   ARG A  20     -30.665  21.348  13.728  1.00  0.00    +0.000 HD
ATOM    196  H   ARG A  21     -28.232  15.154   9.633  1.00  0.00    +0.000 HD
ATOM    197  H   ARG A  21     -30.842  12.165   8.201  1.00  0.00    +0.000 HD
ATOM    198  H   ARG A  21     -31.116  16.596   4.708  1.00  0.00    +0.000 HD
ATOM    199  H   ARG A  21     -32.624  16.316   3.967  1.00  0.00    +0.000 HD
ATOM    200  H   ARG A  21     -33.652  14.274   4.177  1.00  0.00    +0.000 HD
ATOM    201  H   ARG A  21     -32.905  13.029   5.072  1.00  0.00    +0.000 HD
ENDROOT
TORSDOF 0
