REMARK  Name = /var/folders/yp/yjbh3p597675h2qddgqr02y00000gn/T/tmpyrorjag6.pdb
REMARK     285 UNITARY VALUES FOR THE UNIT CELL AUTOMATICALLY SET
REMARK     285 BY MDANALYSIS PDBWRITER BECAUSE UNIT CELL INFORMATION
REMARK     285 WAS MISSING.
REMARK     285 PROTEIN DATA BANK CONVENTIONS REQUIRE THAT
REMARK     285 CRYST1 RECORD IS INCLUDED, BUT THE VALUES ON
REMARK     285 THIS RECORD ARE MEANINGLESS.
REMARK     285 UNITARY VALUES FOR THE UNIT CELL AUTOMATICALLY SET
REMARK     285 BY MDANALYSIS PDBWRITER BECAUSE UNIT CELL INFORMATION
REMARK     285 WAS MISSING.
REMARK     285 PROTEIN DATA BANK CONVENTIONS REQUIRE THAT
REMARK     285 CRYST1 RECORD IS INCLUDED, BUT THE VALUES ON
REMARK     285 THIS RECORD ARE MEANINGLESS.
REMARK                            x       y       z     vdW  Elec       q    Type
REMARK                         _______ _______ _______ _____ _____    ______ ____
ROOT
ATOM      1  N   MET A   1     -22.603  20.184 -18.393  1.00  0.00    -0.123 NA
ATOM      2  CA  MET A   1     -22.715  19.264 -17.265  1.00  0.00    +0.170 C 
ATOM      3  C   MET A   1     -21.956  17.976 -17.535  1.00  0.00    +0.259 C 
ATOM      4  O   MET A   1     -21.845  17.545 -18.682  1.00  0.00    -0.272 OA
ATOM      5  CB  MET A   1     -24.172  18.943 -16.970  1.00  0.00    +0.042 C 
ATOM      6  CG  MET A   1     -24.389  18.276 -15.622  1.00  0.00    +0.086 C 
ATOM      7  SD  MET A   1     -26.139  17.987 -15.260  1.00  0.00    -0.176 S 
ATOM      8  CE  MET A   1     -26.749  17.573 -16.891  1.00  0.00    +0.059 C 
ATOM      9  N   LYS A   2     -21.434  17.358 -16.480  1.00  0.00    -0.202 N 
ATOM     10  CA  LYS A   2     -22.234  16.458 -15.653  1.00  0.00    +0.139 C 
ATOM     11  C   LYS A   2     -23.210  17.236 -14.784  1.00  0.00    +0.213 C 
ATOM     12  O   LYS A   2     -22.908  18.346 -14.350  1.00  0.00    -0.205 OA
ATOM     13  CB  LYS A   2     -21.344  15.598 -14.773  1.00  0.00    +0.026 C 
ATOM     14  CG  LYS A   2     -21.304  14.134 -15.182  1.00  0.00    +0.008 C 
ATOM     15  CD  LYS A   2     -22.683  13.614 -15.551  1.00  0.00    +0.049 C 
ATOM     16  CE  LYS A   2     -22.943  13.746 -16.983  1.00  0.00    +0.096 C 
ATOM     17  NZ  LYS A   2     -24.088  13.427 -17.579  1.00  0.00    -0.151 NA
ATOM     18  N   LEU A   3     -24.377  16.654 -14.530  1.00  0.00    -0.182 NA
ATOM     19  CA  LEU A   3     -25.006  16.751 -13.215  1.00  0.00    +0.153 C 
ATOM     20  C   LEU A   3     -25.065  15.391 -12.543  1.00  0.00    +0.258 C 
ATOM     21  O   LEU A   3     -25.085  14.361 -13.216  1.00  0.00    -0.272 OA
ATOM     22  CB  LEU A   3     -26.410  17.322 -13.331  1.00  0.00    +0.028 C 
ATOM     23  CG  LEU A   3     -26.508  18.835 -13.535  1.00  0.00    +0.012 C 
ATOM     24  CD1 LEU A   3     -27.951  19.296 -13.380  1.00  0.00    +0.001 C 
ATOM     25  CD2 LEU A   3     -26.305  19.193 -15.003  1.00  0.00    +0.048 C 
ATOM     26  N   ALA A   4     -25.091  15.384 -11.214  1.00  0.00    -0.197 N 
ATOM     27  CA  ALA A   4     -25.852  14.381 -10.473  1.00  0.00    +0.173 C 
ATOM     28  C   ALA A   4     -27.341  14.674 -10.529  1.00  0.00    +0.262 C 
ATOM     29  O   ALA A   4     -28.163  13.787 -10.296  1.00  0.00    -0.271 OA
ATOM     30  CB  ALA A   4     -25.399  14.322  -9.022  1.00  0.00    +0.033 C 
ATOM     31  N   VAL A   5     -27.694  15.918 -10.837  1.00  0.00    -0.196 N 
ATOM     32  CA  VAL A   5     -28.981  16.469 -10.424  1.00  0.00    +0.173 C 
ATOM     33  C   VAL A   5     -30.048  16.104 -11.443  1.00  0.00    +0.262 C 
ATOM     34  O   VAL A   5     -29.777  16.056 -12.641  1.00  0.00    -0.271 OA
ATOM     35  CB  VAL A   5     -28.927  17.980 -10.265  1.00  0.00    +0.029 C 
ATOM     36  CG1 VAL A   5     -27.729  18.391  -9.414  1.00  0.00    +0.002 C 
ATOM     37  CG2 VAL A   5     -28.792  18.655 -11.628  1.00  0.00    +0.002 C 
ATOM     38  N   PHE A   6     -31.263  15.846 -10.968  1.00  0.00    -0.194 N 
ATOM     39  CA  PHE A   6     -32.463  16.297 -11.666  1.00  0.00    +0.201 C 
ATOM     40  C   PHE A   6     -32.600  17.808 -11.583  1.00  0.00    +0.264 C 
ATOM     41  O   PHE A   6     -33.056  18.339 -10.572  1.00  0.00    -0.271 OA
ATOM     42  CB  PHE A   6     -33.707  15.641 -11.087  1.00  0.00    +0.011 C 
ATOM     43  CG  PHE A   6     -34.610  15.034 -12.119  1.00  0.00    +0.118 C 
ATOM     44  CD1 PHE A   6     -34.180  13.939 -12.858  1.00  0.00    -0.007 C 
ATOM     45  CE1 PHE A   6     -35.017  13.376 -13.815  1.00  0.00    -0.003 C 
ATOM     46  CD2 PHE A   6     -35.875  15.568 -12.335  1.00  0.00    +0.168 C 
ATOM     47  CE2 PHE A   6     -36.712  15.005 -13.291  1.00  0.00    +0.006 C 
ATOM     48  CZ  PHE A   6     -36.284  13.909 -14.032  1.00  0.00    -0.002 C 
ATOM     49  N   ALA A   7     -32.205  18.502 -12.647  1.00  0.00    -0.196 N 
ATOM     50  CA  ALA A   7     -33.033  19.563 -13.212  1.00  0.00    +0.173 C 
ATOM     51  C   ALA A   7     -34.060  18.999 -14.180  1.00  0.00    +0.261 C 
ATOM     52  O   ALA A   7     -34.806  19.750 -14.806  1.00  0.00    -0.271 OA
ATOM     53  CB  ALA A   7     -32.175  20.595 -13.926  1.00  0.00    +0.033 C 
ATOM     54  N   LEU A   8     -34.099  17.675 -14.306  1.00  0.00    -0.202 N 
ATOM     55  CA  LEU A   8     -35.358  16.941 -14.238  1.00  0.00    +0.138 C 
ATOM     56  C   LEU A   8     -35.693  16.571 -12.801  1.00  0.00    +0.199 C 
ATOM     57  O   LEU A   8     -36.859  16.576 -12.412  1.00  0.00    -0.334 OA
ATOM     58  CB  LEU A   8     -35.294  15.682 -15.084  1.00  0.00    +0.026 C 
ATOM     59  CG  LEU A   8     -35.563  15.861 -16.581  1.00  0.00    +0.002 C 
ATOM     60  CD1 LEU A   8     -36.779  15.045 -17.000  1.00  0.00    +0.000 C 
ATOM     61  CD2 LEU A   8     -34.502  15.139 -17.405  1.00  0.00    +0.000 C 
ATOM     62  N   LEU A   9     -34.670  16.250 -12.015  1.00  0.00    -0.187 NA
ATOM     63  CA  LEU A   9     -34.646  14.991 -11.274  1.00  0.00    +0.099 C 
ATOM     64  C   LEU A   9     -35.725  14.973 -10.205  1.00  0.00    +0.243 C 
ATOM     65  O   LEU A   9     -35.991  15.991  -9.567  1.00  0.00    -0.273 OA
ATOM     66  CB  LEU A   9     -33.288  14.772 -10.630  1.00  0.00    +0.001 C 
ATOM     67  CG  LEU A   9     -32.383  13.735 -11.298  1.00  0.00    +0.000 C 
ATOM     68  CD1 LEU A   9     -32.768  12.331 -10.849  1.00  0.00    +0.000 C 
ATOM     69  CD2 LEU A   9     -30.977  13.790 -10.710  1.00  0.00    +0.000 C 
ATOM     70  N   VAL A  10     -36.351  13.816 -10.008  1.00  0.00    -0.198 N 
ATOM     71  CA  VAL A  10     -37.301  13.642  -8.914  1.00  0.00    +0.173 C 
ATOM     72  C   VAL A  10     -36.894  12.452  -8.061  1.00  0.00    +0.262 C 
ATOM     73  O   VAL A  10     -36.764  11.338  -8.565  1.00  0.00    -0.271 OA
ATOM     74  CB  VAL A  10     -38.720  13.440  -9.421  1.00  0.00    +0.029 C 
ATOM     75  CG1 VAL A  10     -39.724  13.551  -8.276  1.00  0.00    +0.002 C 
ATOM     76  CG2 VAL A  10     -39.070  14.504 -10.461  1.00  0.00    +0.002 C 
ATOM     77  N   CYS A  11     -36.694  12.686  -6.768  1.00  0.00    -0.195 N 
ATOM     78  CA  CYS A  11     -37.525  12.059  -5.744  1.00  0.00    +0.184 C 
ATOM     79  C   CYS A  11     -38.879  12.740  -5.652  1.00  0.00    +0.263 C 
ATOM     80  O   CYS A  11     -39.914  12.103  -5.839  1.00  0.00    -0.271 OA
ATOM     81  CB  CYS A  11     -36.838  12.108  -4.388  1.00  0.00    +0.100 C 
ATOM     82  SG  CYS A  11     -35.350  11.087  -4.285  1.00  0.00    -0.080 S 
ATOM     83  N   PHE A  12     -38.875  14.038  -5.363  1.00  0.00    -0.196 N 
ATOM     84  CA  PHE A  12     -39.302  14.528  -4.055  1.00  0.00    +0.177 C 
ATOM     85  C   PHE A  12     -40.812  14.441  -3.915  1.00  0.00    +0.262 C 
ATOM     86  O   PHE A  12     -41.548  14.876  -4.799  1.00  0.00    -0.271 OA
ATOM     87  CB  PHE A  12     -38.855  15.966  -3.843  1.00  0.00    +0.057 C 
ATOM     88  CG  PHE A  12     -37.370  16.125  -3.703  1.00  0.00    -0.020 A 
ATOM     89  CD1 PHE A  12     -36.604  16.491  -4.803  1.00  0.00    -0.004 A 
ATOM     90  CE1 PHE A  12     -35.228  16.639  -4.673  1.00  0.00    -0.000 A 
ATOM     91  CD2 PHE A  12     -36.761  15.905  -2.473  1.00  0.00    -0.004 A 
ATOM     92  CE2 PHE A  12     -35.384  16.053  -2.344  1.00  0.00    -0.000 A 
ATOM     93  CZ  PHE A  12     -34.618  16.420  -3.443  1.00  0.00    -0.000 A 
ATOM     94  N   ALA A  13     -41.277  13.878  -2.803  1.00  0.00    -0.196 N 
ATOM     95  CA  ALA A  13     -41.856  14.680  -1.728  1.00  0.00    +0.173 C 
ATOM     96  C   ALA A  13     -40.787  15.493  -1.017  1.00  0.00    +0.262 C 
ATOM     97  O   ALA A  13     -39.994  16.179  -1.659  1.00  0.00    -0.271 OA
ATOM     98  CB  ALA A  13     -42.575  13.796  -0.721  1.00  0.00    +0.033 C 
ATOM     99  N   GLU A  14     -40.764  15.416   0.311  1.00  0.00    -0.196 N 
ATOM    100  CA  GLU A  14     -39.907  16.289   1.108  1.00  0.00    +0.173 C 
ATOM    101  C   GLU A  14     -38.442  15.921   0.940  1.00  0.00    +0.262 C 
ATOM    102  O   GLU A  14     -37.604  16.791   0.708  1.00  0.00    -0.271 OA
ATOM    103  CB  GLU A  14     -40.281  16.218   2.580  1.00  0.00    +0.043 C 
ATOM    104  CG  GLU A  14     -39.503  17.185   3.458  1.00  0.00    +0.116 C 
ATOM    105  CD  GLU A  14     -39.922  17.142   4.918  1.00  0.00    +0.365 C 
ATOM    106  OE1 GLU A  14     -41.100  16.831   5.202  1.00  0.00    -0.246 OA
ATOM    107  OE2 GLU A  14     -39.067  17.423   5.785  1.00  0.00    -0.246 OA
ATOM    108  N   SER A  15     -38.133  14.634   1.055  1.00  0.00    -0.194 N 
ATOM    109  CA  SER A  15     -36.901  14.202   1.710  1.00  0.00    +0.205 C 
ATOM    110  C   SER A  15     -35.714  14.294   0.765  1.00  0.00    +0.264 C 
ATOM    111  O   SER A  15     -35.879  14.243  -0.452  1.00  0.00    -0.271 OA
ATOM    112  CB  SER A  15     -37.036  12.777   2.219  1.00  0.00    +0.213 C 
ATOM    113  OG  SER A  15     -36.968  11.852   1.148  1.00  0.00    -0.218 OA
ATOM    114  N   SER A  16     -34.515  14.430   1.325  1.00  0.00    -0.194 N 
ATOM    115  CA  SER A  16     -33.336  13.769   0.771  1.00  0.00    +0.205 C 
ATOM    116  C   SER A  16     -33.376  12.270   1.020  1.00  0.00    +0.264 C 
ATOM    117  O   SER A  16     -32.727  11.502   0.312  1.00  0.00    -0.271 OA
ATOM    118  CB  SER A  16     -32.065  14.349   1.368  1.00  0.00    +0.213 C 
ATOM    119  OG  SER A  16     -31.972  14.039   2.749  1.00  0.00    -0.218 OA
ATOM    120  N   ASP A  17     -34.138  11.853   2.027  1.00  0.00    -0.196 N 
ATOM    121  CA  ASP A  17     -33.763  10.698   2.837  1.00  0.00    +0.184 C 
ATOM    122  C   ASP A  17     -34.247   9.404   2.201  1.00  0.00    +0.262 C 
ATOM    123  O   ASP A  17     -33.464   8.684   1.585  1.00  0.00    -0.271 OA
ATOM    124  CB  ASP A  17     -34.330  10.814   4.243  1.00  0.00    +0.145 C 
ATOM    125  CG  ASP A  17     -33.710  11.947   5.043  1.00  0.00    +0.367 C 
ATOM    126  OD1 ASP A  17     -32.811  12.642   4.521  1.00  0.00    -0.246 OA
ATOM    127  OD2 ASP A  17     -34.124  12.145   6.206  1.00  0.00    -0.246 OA
ATOM    128  N   LEU A  18     -35.535   9.113   2.348  1.00  0.00    -0.196 N 
ATOM    129  CA  LEU A  18     -36.057   7.790   2.020  1.00  0.00    +0.173 C 
ATOM    130  C   LEU A  18     -36.785   7.809   0.685  1.00  0.00    +0.262 C 
ATOM    131  O   LEU A  18     -36.300   7.257  -0.300  1.00  0.00    -0.271 OA
ATOM    132  CB  LEU A  18     -37.001   7.298   3.105  1.00  0.00    +0.035 C 
ATOM    133  CG  LEU A  18     -37.644   5.930   2.871  1.00  0.00    +0.046 C 
ATOM    134  CD1 LEU A  18     -37.959   5.741   1.391  1.00  0.00    +0.004 C 
ATOM    135  CD2 LEU A  18     -39.067   5.905   3.415  1.00  0.00    +0.208 C 
ATOM    136  N   VAL A  19     -37.953   8.446   0.653  1.00  0.00    -0.196 N 
ATOM    137  CA  VAL A  19     -39.174   7.821   1.151  1.00  0.00    +0.173 C 
ATOM    138  C   VAL A  19     -40.113   7.528  -0.008  1.00  0.00    +0.262 C 
ATOM    139  O   VAL A  19     -40.776   8.429  -0.518  1.00  0.00    -0.271 OA
ATOM    140  CB  VAL A  19     -39.885   8.696   2.170  1.00  0.00    +0.029 C 
ATOM    141  CG1 VAL A  19     -41.280   8.153   2.468  1.00  0.00    +0.002 C 
ATOM    142  CG2 VAL A  19     -39.102   8.728   3.482  1.00  0.00    +0.002 C 
ATOM    143  N   ARG A  20     -40.170   6.266  -0.427  1.00  0.00    -0.196 N 
ATOM    144  CA  ARG A  20     -41.410   5.499  -0.364  1.00  0.00    +0.173 C 
ATOM    145  C   ARG A  20     -41.744   5.121   1.069  1.00  0.00    +0.262 C 
ATOM    146  O   ARG A  20     -42.890   5.249   1.498  1.00  0.00    -0.271 OA
ATOM    147  CB  ARG A  20     -41.314   4.242  -1.212  1.00  0.00    +0.033 C 
ATOM    148  CG  ARG A  20     -42.371   3.199  -0.887  1.00  0.00    +0.029 C 
ATOM    149  CD  ARG A  20     -42.501   2.165  -1.994  1.00  0.00    +0.129 C 
ATOM    150  NE  ARG A  20     -42.903   2.774  -3.257  1.00  0.00    -0.234 NA
ATOM    151  CZ  ARG A  20     -43.569   2.148  -4.224  1.00  0.00    +0.284 C 
ATOM    152  NH1 ARG A  20     -43.884   0.863  -4.106  1.00  0.00    -0.104 N 
ATOM    153  NH2 ARG A  20     -43.921   2.816  -5.319  1.00  0.00    -0.104 N 
ATOM    154  N   ARG A  21     -40.745   4.654   1.812  1.00  0.00    -0.194 N 
ATOM    155  CA  ARG A  21     -40.978   3.683   2.877  1.00  0.00    +0.194 C 
ATOM    156  C   ARG A  21     -41.029   4.364   4.234  1.00  0.00    +0.337 C 
ATOM    157  O   ARG A  21     -41.657   3.859   5.164  1.00  0.00    -0.248 OA
ATOM    158  CB  ARG A  21     -39.896   2.616   2.884  1.00  0.00    +0.035 C 
ATOM    159  CG  ARG A  21     -40.086   1.541   1.828  1.00  0.00    +0.029 C 
ATOM    160  CD  ARG A  21     -39.335   0.266   2.179  1.00  0.00    +0.129 C 
ATOM    161  NE  ARG A  21     -39.550  -0.779   1.182  1.00  0.00    -0.234 NA
ATOM    162  CZ  ARG A  21     -39.279  -2.069   1.363  1.00  0.00    +0.284 C 
ATOM    163  NH1 ARG A  21     -38.838  -2.510   2.537  1.00  0.00    -0.104 N 
ATOM    164  NH2 ARG A  21     -39.449  -2.923   0.359  1.00  0.00    -0.104 N 
ATOM    165  OXT ARG A  21     -40.443   5.430   4.421  1.00  0.00    -0.447 OA
ATOM    166  H   MET A   1     -21.619  20.385 -18.572  1.00  0.00    +0.000 HD
ATOM    167  H   MET A   1     -23.093  21.052 -18.175  1.00  0.00    +0.000 HD
ATOM    168  H   MET A   1     -26.630  17.094 -14.359  1.00  0.00    +0.000 HD
ATOM    169  H   LYS A   2     -20.488  17.510 -16.251  1.00  0.00    +0.000 HD
ATOM    170  H   LYS A   2     -22.165  18.260 -13.732  1.00  0.00    +0.000 HD
ATOM    171  H   LYS A   2     -24.838  13.074 -17.047  1.00  0.00    +0.000 HD
ATOM    172  H   LEU A   3     -24.250  15.659 -14.717  1.00  0.00    +0.000 HD
ATOM    173  H   ALA A   4     -24.587  16.069 -10.718  1.00  0.00    +0.000 HD
ATOM    174  H   VAL A   5     -27.074  16.481 -11.356  1.00  0.00    +0.000 HD
ATOM    175  H   PHE A   6     -31.355  15.339 -10.129  1.00  0.00    +0.000 HD
ATOM    176  H   ALA A   7     -31.337  18.295 -13.063  1.00  0.00    +0.000 HD
ATOM    177  H   LEU A   8     -33.259  17.181 -14.447  1.00  0.00    +0.000 HD
ATOM    178  H   LEU A   9     -33.807  16.688 -12.340  1.00  0.00    +0.000 HD
ATOM    179  H   VAL A  10     -36.169  13.060 -10.613  1.00  0.00    +0.000 HD
ATOM    180  H   CYS A  11     -35.970  13.296  -6.495  1.00  0.00    +0.000 HD
ATOM    181  H   CYS A  11     -34.427  11.539  -5.176  1.00  0.00    +0.000 HD
ATOM    182  H   PHE A  12     -38.577  14.683  -6.045  1.00  0.00    +0.000 HD
ATOM    183  H   ALA A  13     -41.229  12.900  -2.702  1.00  0.00    +0.000 HD
ATOM    184  H   GLU A  14     -41.337  14.758   0.766  1.00  0.00    +0.000 HD
ATOM    185  H   GLU A  14     -41.709  16.628   4.520  1.00  0.00    +0.000 HD
ATOM    186  H   SER A  15     -38.748  13.956   0.691  1.00  0.00    +0.000 HD
ATOM    187  H   SER A  15     -36.111  11.937   0.701  1.00  0.00    +0.000 HD
ATOM    188  H   SER A  16     -34.421  14.988   2.131  1.00  0.00    +0.000 HD
ATOM    189  H   SER A  16     -31.951  13.077   2.863  1.00  0.00    +0.000 HD
ATOM    190  H   ASP A  17     -34.974  12.333   2.230  1.00  0.00    +0.000 HD
ATOM    191  H   ASP A  17     -34.800  11.602   6.561  1.00  0.00    +0.000 HD
ATOM    192  H   LEU A  18     -36.151   9.803   2.685  1.00  0.00    +0.000 HD
ATOM    193  H   VAL A  19     -37.994   9.358   0.285  1.00  0.00    +0.000 HD
ATOM    194  H   ARG A  20     -39.358   5.841  -0.786  1.00  0.00    +0.000 HD
ATOM    195  H   ARG A  20     -43.624   0.364  -3.298  1.00  0.00    +0.000 HD
ATOM    196  H   ARG A  20     -44.376   0.409  -4.828  1.00  0.00    +0.000 HD
ATOM    197  H   ARG A  20     -44.414   2.358  -6.037  1.00  0.00    +0.000 HD
ATOM    198  H   ARG A  20     -43.690   3.769  -5.410  1.00  0.00    +0.000 HD
ATOM    199  H   ARG A  21     -39.829   4.970   1.641  1.00  0.00    +0.000 HD
ATOM    200  H   ARG A  21     -38.640  -3.467   2.661  1.00  0.00    +0.000 HD
ATOM    201  H   ARG A  21     -38.709  -1.880   3.283  1.00  0.00    +0.000 HD
ATOM    202  H   ARG A  21     -39.249  -3.879   0.486  1.00  0.00    +0.000 HD
ATOM    203  H   ARG A  21     -39.774  -2.601  -0.513  1.00  0.00    +0.000 HD
ENDROOT
TORSDOF 0
