REMARK  Name = /var/folders/yp/yjbh3p597675h2qddgqr02y00000gn/T/tmp8uo6dl9v.pdb
REMARK   1 CREATED WITH OPENMM 8.6.1, 2026-10-07
REMARK                            x       y       z     vdW  Elec       q    Type
REMARK                         _______ _______ _______ _____ _____    ______ ____
ROOT
ATOM      1  N   MET A   1     -37.511 -30.715   5.511  1.00  0.00    -0.123 NA
ATOM      2  CA  MET A   1     -36.574 -30.361   4.426  1.00  0.00    +0.170 C 
ATOM      3  C   MET A   1     -36.112 -28.923   4.585  1.00  0.00    +0.259 C 
ATOM      4  O   MET A   1     -36.855 -28.070   5.076  1.00  0.00    -0.272 OA
ATOM      5  CB  MET A   1     -37.221 -30.544   3.054  1.00  0.00    +0.040 C 
ATOM      6  CG  MET A   1     -36.242 -30.452   1.873  1.00  0.00    +0.060 C 
ATOM      7  SD  MET A   1     -36.970 -29.701   0.398  1.00  0.00    -0.139 S 
ATOM      8  CE  MET A   1     -38.505 -30.659   0.286  1.00  0.00    +0.069 C 
ATOM      9  N   LYS A   2     -34.868 -28.647   4.203  1.00  0.00    -0.197 N 
ATOM     10  CA  LYS A   2     -34.206 -27.388   4.524  1.00  0.00    +0.173 C 
ATOM     11  C   LYS A   2     -34.594 -26.265   3.564  1.00  0.00    +0.262 C 
ATOM     12  O   LYS A   2     -34.857 -26.503   2.383  1.00  0.00    -0.271 OA
ATOM     13  CB  LYS A   2     -32.698 -27.631   4.512  1.00  0.00    +0.031 C 
ATOM     14  CG  LYS A   2     -32.008 -27.057   5.761  1.00  0.00    +0.004 C 
ATOM     15  CD  LYS A   2     -30.484 -27.213   5.704  1.00  0.00    +0.021 C 
ATOM     16  CE  LYS A   2     -30.014 -26.767   4.317  1.00  0.00    +0.109 C 
ATOM     17  NZ  LYS A   2     -28.665 -26.207   4.270  1.00  0.00    -0.131 NA
ATOM     18  N   LEU A   3     -34.547 -25.033   4.058  1.00  0.00    -0.196 N 
ATOM     19  CA  LEU A   3     -34.506 -23.847   3.204  1.00  0.00    +0.173 C 
ATOM     20  C   LEU A   3     -33.089 -23.683   2.666  1.00  0.00    +0.262 C 
ATOM     21  O   LEU A   3     -32.134 -23.571   3.440  1.00  0.00    -0.271 OA
ATOM     22  CB  LEU A   3     -34.928 -22.604   3.999  1.00  0.00    +0.031 C 
ATOM     23  CG  LEU A   3     -36.444 -22.450   4.216  1.00  0.00    +0.002 C 
ATOM     24  CD1 LEU A   3     -36.700 -21.742   5.543  1.00  0.00    +0.000 C 
ATOM     25  CD2 LEU A   3     -37.212 -23.764   4.347  1.00  0.00    +0.000 C 
ATOM     26  N   ALA A   4     -32.958 -23.643   1.342  1.00  0.00    -0.196 N 
ATOM     27  CA  ALA A   4     -31.730 -23.184   0.712  1.00  0.00    +0.173 C 
ATOM     28  C   ALA A   4     -31.438 -21.742   1.133  1.00  0.00    +0.262 C 
ATOM     29  O   ALA A   4     -32.344 -20.916   1.274  1.00  0.00    -0.271 OA
ATOM     30  CB  ALA A   4     -31.849 -23.283  -0.809  1.00  0.00    +0.033 C 
ATOM     31  N   VAL A   5     -30.160 -21.435   1.303  1.00  0.00    -0.196 N 
ATOM     32  CA  VAL A   5     -29.705 -20.055   1.405  1.00  0.00    +0.173 C 
ATOM     33  C   VAL A   5     -29.614 -19.427   0.018  1.00  0.00    +0.262 C 
ATOM     34  O   VAL A   5     -29.103 -20.040  -0.921  1.00  0.00    -0.271 OA
ATOM     35  CB  VAL A   5     -28.346 -19.984   2.099  1.00  0.00    +0.029 C 
ATOM     36  CG1 VAL A   5     -28.488 -20.273   3.599  1.00  0.00    +0.002 C 
ATOM     37  CG2 VAL A   5     -27.288 -20.914   1.511  1.00  0.00    +0.002 C 
ATOM     38  N   PHE A   6     -30.051 -18.175  -0.090  1.00  0.00    -0.196 N 
ATOM     39  CA  PHE A   6     -29.420 -17.206  -0.996  1.00  0.00    +0.177 C 
ATOM     40  C   PHE A   6     -28.513 -16.272  -0.200  1.00  0.00    +0.262 C 
ATOM     41  O   PHE A   6     -27.359 -16.053  -0.571  1.00  0.00    -0.271 OA
ATOM     42  CB  PHE A   6     -30.462 -16.381  -1.749  1.00  0.00    +0.057 C 
ATOM     43  CG  PHE A   6     -31.624 -17.190  -2.257  1.00  0.00    -0.020 A 
ATOM     44  CD1 PHE A   6     -32.785 -17.298  -1.473  1.00  0.00    -0.004 A 
ATOM     45  CE1 PHE A   6     -33.870 -18.055  -1.933  1.00  0.00    -0.000 A 
ATOM     46  CD2 PHE A   6     -31.543 -17.842  -3.497  1.00  0.00    -0.004 A 
ATOM     47  CE2 PHE A   6     -32.632 -18.595  -3.958  1.00  0.00    -0.000 A 
ATOM     48  CZ  PHE A   6     -33.795 -18.701  -3.177  1.00  0.00    -0.000 A 
ATOM     49  N   ALA A   7     -29.016 -15.760   0.928  1.00  0.00    -0.196 N 
ATOM     50  CA  ALA A   7     -28.184 -15.114   1.929  1.00  0.00    +0.173 C 
ATOM     51  C   ALA A   7     -27.206 -16.122   2.540  1.00  0.00    +0.262 C 
ATOM     52  O   ALA A   7     -27.628 -17.132   3.098  1.00  0.00    -0.271 OA
ATOM     53  CB  ALA A   7     -29.067 -14.505   3.024  1.00  0.00    +0.033 C 
ATOM     54  N   LEU A   8     -25.912 -15.811   2.511  1.00  0.00    -0.196 N 
ATOM     55  CA  LEU A   8     -24.981 -16.342   3.503  1.00  0.00    +0.173 C 
ATOM     56  C   LEU A   8     -25.161 -15.596   4.827  1.00  0.00    +0.262 C 
ATOM     57  O   LEU A   8     -25.547 -14.425   4.859  1.00  0.00    -0.271 OA
ATOM     58  CB  LEU A   8     -23.527 -16.224   3.037  1.00  0.00    +0.031 C 
ATOM     59  CG  LEU A   8     -23.078 -17.299   2.032  1.00  0.00    +0.002 C 
ATOM     60  CD1 LEU A   8     -21.596 -17.599   2.233  1.00  0.00    +0.000 C 
ATOM     61  CD2 LEU A   8     -23.188 -16.808   0.594  1.00  0.00    +0.000 C 
ATOM     62  N   LEU A   9     -24.900 -16.299   5.920  1.00  0.00    -0.196 N 
ATOM     63  CA  LEU A   9     -25.373 -15.908   7.241  1.00  0.00    +0.173 C 
ATOM     64  C   LEU A   9     -24.705 -14.627   7.733  1.00  0.00    +0.262 C 
ATOM     65  O   LEU A   9     -23.510 -14.413   7.518  1.00  0.00    -0.271 OA
ATOM     66  CB  LEU A   9     -25.199 -17.039   8.275  1.00  0.00    +0.031 C 
ATOM     67  CG  LEU A   9     -24.714 -18.404   7.747  1.00  0.00    +0.002 C 
ATOM     68  CD1 LEU A   9     -25.013 -19.497   8.759  1.00  0.00    +0.000 C 
ATOM     69  CD2 LEU A   9     -23.195 -18.429   7.577  1.00  0.00    +0.000 C 
ATOM     70  N   VAL A  10     -25.464 -13.830   8.479  1.00  0.00    -0.196 N 
ATOM     71  CA  VAL A  10     -24.895 -12.875   9.428  1.00  0.00    +0.173 C 
ATOM     72  C   VAL A  10     -25.514 -13.114  10.798  1.00  0.00    +0.262 C 
ATOM     73  O   VAL A  10     -26.739 -13.166  10.928  1.00  0.00    -0.271 OA
ATOM     74  CB  VAL A  10     -25.089 -11.413   8.989  1.00  0.00    +0.029 C 
ATOM     75  CG1 VAL A  10     -24.183 -10.481   9.801  1.00  0.00    +0.002 C 
ATOM     76  CG2 VAL A  10     -24.759 -11.204   7.509  1.00  0.00    +0.002 C 
ATOM     77  N   CYS A  11     -24.669 -13.204  11.821  1.00  0.00    -0.195 N 
ATOM     78  CA  CYS A  11     -24.972 -12.606  13.118  1.00  0.00    +0.184 C 
ATOM     79  C   CYS A  11     -24.161 -11.318  13.264  1.00  0.00    +0.263 C 
ATOM     80  O   CYS A  11     -22.928 -11.346  13.235  1.00  0.00    -0.271 OA
ATOM     81  CB  CYS A  11     -24.626 -13.562  14.265  1.00  0.00    +0.100 C 
ATOM     82  SG  CYS A  11     -25.785 -14.953  14.345  1.00  0.00    -0.080 S 
ATOM     83  N   PHE A  12     -24.845 -10.190  13.431  1.00  0.00    -0.196 N 
ATOM     84  CA  PHE A  12     -24.200  -8.955  13.860  1.00  0.00    +0.177 C 
ATOM     85  C   PHE A  12     -23.989  -8.984  15.373  1.00  0.00    +0.262 C 
ATOM     86  O   PHE A  12     -24.921  -9.221  16.146  1.00  0.00    -0.271 OA
ATOM     87  CB  PHE A  12     -25.028  -7.736  13.442  1.00  0.00    +0.057 C 
ATOM     88  CG  PHE A  12     -26.517  -7.901  13.647  1.00  0.00    -0.020 A 
ATOM     89  CD1 PHE A  12     -27.099  -7.651  14.901  1.00  0.00    -0.004 A 
ATOM     90  CE1 PHE A  12     -28.476  -7.846  15.086  1.00  0.00    -0.000 A 
ATOM     91  CD2 PHE A  12     -27.315  -8.333  12.575  1.00  0.00    -0.004 A 
ATOM     92  CE2 PHE A  12     -28.694  -8.515  12.757  1.00  0.00    -0.000 A 
ATOM     93  CZ  PHE A  12     -29.274  -8.273  14.013  1.00  0.00    -0.000 A 
ATOM     94  N   ALA A  13     -22.765  -8.690  15.794  1.00  0.00    -0.196 N 
ATOM     95  CA  ALA A  13     -22.561  -7.911  17.003  1.00  0.00    +0.173 C 
ATOM     96  C   ALA A  13     -22.705  -6.422  16.677  1.00  0.00    +0.262 C 
ATOM     97  O   ALA A  13     -22.509  -5.976  15.544  1.00  0.00    -0.271 OA
ATOM     98  CB  ALA A  13     -21.177  -8.210  17.586  1.00  0.00    +0.033 C 
ATOM     99  N   GLU A  14     -22.992  -5.655  17.709  1.00  0.00    -0.196 N 
ATOM    100  CA  GLU A  14     -22.554  -4.278  17.813  1.00  0.00    +0.173 C 
ATOM    101  C   GLU A  14     -21.044  -4.226  18.089  1.00  0.00    +0.262 C 
ATOM    102  O   GLU A  14     -20.433  -5.194  18.536  1.00  0.00    -0.271 OA
ATOM    103  CB  GLU A  14     -23.390  -3.679  18.945  1.00  0.00    +0.043 C 
ATOM    104  CG  GLU A  14     -24.786  -3.265  18.481  1.00  0.00    +0.116 C 
ATOM    105  CD  GLU A  14     -25.595  -2.729  19.657  1.00  0.00    +0.365 C 
ATOM    106  OE1 GLU A  14     -25.060  -1.957  20.486  1.00  0.00    -0.246 OA
ATOM    107  OE2 GLU A  14     -26.790  -3.085  19.765  1.00  0.00    -0.246 OA
ATOM    108  N   SER A  15     -20.384  -3.112  17.861  1.00  0.00    -0.194 N 
ATOM    109  CA  SER A  15     -20.687  -1.936  18.661  1.00  0.00    +0.205 C 
ATOM    110  C   SER A  15     -22.003  -1.218  18.311  1.00  0.00    +0.264 C 
ATOM    111  O   SER A  15     -22.597  -1.483  17.266  1.00  0.00    -0.271 OA
ATOM    112  CB  SER A  15     -19.520  -1.043  18.471  1.00  0.00    +0.213 C 
ATOM    113  OG  SER A  15     -19.800  -0.460  17.254  1.00  0.00    -0.218 OA
ATOM    114  N   SER A  16     -22.459  -0.310  19.173  1.00  0.00    -0.194 N 
ATOM    115  CA  SER A  16     -23.455   0.692  18.763  1.00  0.00    +0.205 C 
ATOM    116  C   SER A  16     -22.919   1.589  17.636  1.00  0.00    +0.264 C 
ATOM    117  O   SER A  16     -23.677   2.248  16.927  1.00  0.00    -0.271 OA
ATOM    118  CB  SER A  16     -23.874   1.524  19.978  1.00  0.00    +0.213 C 
ATOM    119  OG  SER A  16     -23.941   2.908  19.686  1.00  0.00    -0.218 OA
ATOM    120  N   ASP A  17     -21.615   1.606  17.429  1.00  0.00    -0.196 N 
ATOM    121  CA  ASP A  17     -20.950   2.043  16.213  1.00  0.00    +0.184 C 
ATOM    122  C   ASP A  17     -21.133   0.998  15.095  1.00  0.00    +0.262 C 
ATOM    123  O   ASP A  17     -20.380   0.036  14.923  1.00  0.00    -0.271 OA
ATOM    124  CB  ASP A  17     -19.453   2.382  16.439  1.00  0.00    +0.145 C 
ATOM    125  CG  ASP A  17     -18.750   1.756  17.656  1.00  0.00    +0.367 C 
ATOM    126  OD1 ASP A  17     -19.370   1.657  18.744  1.00  0.00    -0.246 OA
ATOM    127  OD2 ASP A  17     -17.593   1.287  17.523  1.00  0.00    -0.246 OA
ATOM    128  N   LEU A  18     -22.103   1.240  14.227  1.00  0.00    -0.196 N 
ATOM    129  CA  LEU A  18     -21.961   0.802  12.846  1.00  0.00    +0.173 C 
ATOM    130  C   LEU A  18     -21.455   1.937  11.975  1.00  0.00    +0.262 C 
ATOM    131  O   LEU A  18     -21.944   3.063  12.045  1.00  0.00    -0.271 OA
ATOM    132  CB  LEU A  18     -23.271   0.220  12.293  1.00  0.00    +0.031 C 
ATOM    133  CG  LEU A  18     -23.549  -1.253  12.643  1.00  0.00    +0.002 C 
ATOM    134  CD1 LEU A  18     -24.502  -1.390  13.819  1.00  0.00    +0.000 C 
ATOM    135  CD2 LEU A  18     -22.317  -2.062  13.040  1.00  0.00    +0.000 C 
ATOM    136  N   VAL A  19     -20.538   1.581  11.084  1.00  0.00    -0.196 N 
ATOM    137  CA  VAL A  19     -20.684   1.887   9.662  1.00  0.00    +0.173 C 
ATOM    138  C   VAL A  19     -20.992   0.573   8.943  1.00  0.00    +0.262 C 
ATOM    139  O   VAL A  19     -20.491  -0.491   9.316  1.00  0.00    -0.271 OA
ATOM    140  CB  VAL A  19     -19.426   2.574   9.112  1.00  0.00    +0.029 C 
ATOM    141  CG1 VAL A  19     -19.170   3.902   9.809  1.00  0.00    +0.002 C 
ATOM    142  CG2 VAL A  19     -18.189   1.680   9.186  1.00  0.00    +0.002 C 
ATOM    143  N   ARG A  20     -21.824   0.612   7.908  1.00  0.00    -0.196 N 
ATOM    144  CA  ARG A  20     -21.217   0.602   6.585  1.00  0.00    +0.173 C 
ATOM    145  C   ARG A  20     -20.551   1.905   6.165  1.00  0.00    +0.262 C 
ATOM    146  O   ARG A  20     -19.402   1.887   5.729  1.00  0.00    -0.271 OA
ATOM    147  CB  ARG A  20     -22.232   0.286   5.521  1.00  0.00    +0.033 C 
ATOM    148  CG  ARG A  20     -22.876  -1.105   5.507  1.00  0.00    +0.029 C 
ATOM    149  CD  ARG A  20     -23.196  -1.591   4.075  1.00  0.00    +0.129 C 
ATOM    150  NE  ARG A  20     -22.978  -0.561   3.035  1.00  0.00    -0.234 NA
ATOM    151  CZ  ARG A  20     -23.542   0.621   3.016  1.00  0.00    +0.284 C 
ATOM    152  NH1 ARG A  20     -24.738   0.744   3.464  1.00  0.00    -0.104 N 
ATOM    153  NH2 ARG A  20     -22.887   1.643   2.555  1.00  0.00    -0.104 N 
ATOM    154  N   ARG A  21     -21.304   3.003   6.275  1.00  0.00    -0.194 N 
ATOM    155  CA  ARG A  21     -21.322   4.063   5.259  1.00  0.00    +0.198 C 
ATOM    156  C   ARG A  21     -20.230   5.106   5.450  1.00  0.00    +0.384 C 
ATOM    157  O   ARG A  21     -20.436   6.062   6.222  1.00  0.00    -0.244 OA
ATOM    158  CB  ARG A  21     -22.702   4.744   5.232  1.00  0.00    +0.035 C 
ATOM    159  CG  ARG A  21     -23.867   3.922   4.700  1.00  0.00    +0.029 C 
ATOM    160  CD  ARG A  21     -24.590   3.088   5.765  1.00  0.00    +0.129 C 
ATOM    161  NE  ARG A  21     -25.744   2.383   5.206  1.00  0.00    -0.234 NA
ATOM    162  CZ  ARG A  21     -26.478   1.473   5.805  1.00  0.00    +0.284 C 
ATOM    163  NH1 ARG A  21     -26.072   0.310   6.238  1.00  0.00    -0.104 N 
ATOM    164  NH2 ARG A  21     -27.721   1.785   5.974  1.00  0.00    -0.104 N 
ATOM    165  OXT ARG A  21     -19.177   5.001   4.793  1.00  0.00    -0.244 OA
ATOM    166  H   MET A   1     -37.815 -31.682   5.396  1.00  0.00    +0.000 HD
ATOM    167  H   MET A   1     -38.321 -30.098   5.476  1.00  0.00    +0.000 HD
ATOM    168  H   LYS A   2     -34.374 -29.321   3.683  1.00  0.00    +0.000 HD
ATOM    169  H   LYS A   2     -28.629 -25.358   4.834  1.00  0.00    +0.000 HD
ATOM    170  H   LYS A   2     -28.423 -25.984   3.304  1.00  0.00    +0.000 HD
ATOM    171  H   LEU A   3     -34.540 -24.914   5.035  1.00  0.00    +0.000 HD
ATOM    172  H   ALA A   4     -33.710 -23.930   0.776  1.00  0.00    +0.000 HD
ATOM    173  H   VAL A   5     -29.498 -22.161   1.361  1.00  0.00    +0.000 HD
ATOM    174  H   PHE A   6     -30.821 -17.889   0.453  1.00  0.00    +0.000 HD
ATOM    175  H   ALA A   7     -29.986 -15.824   1.086  1.00  0.00    +0.000 HD
ATOM    176  H   LEU A   8     -25.577 -15.212   1.806  1.00  0.00    +0.000 HD
ATOM    177  H   LEU A   9     -24.363 -17.120   5.835  1.00  0.00    +0.000 HD
ATOM    178  H   VAL A  10     -26.443 -13.884   8.389  1.00  0.00    +0.000 HD
ATOM    179  H   CYS A  11     -23.819 -13.686  11.701  1.00  0.00    +0.000 HD
ATOM    180  H   CYS A  11     -25.724 -15.661  13.186  1.00  0.00    +0.000 HD
ATOM    181  H   PHE A  12     -25.814 -10.190  13.260  1.00  0.00    +0.000 HD
ATOM    182  H   ALA A  13     -21.985  -9.003  15.281  1.00  0.00    +0.000 HD
ATOM    183  H   GLU A  14     -23.529  -6.033  18.442  1.00  0.00    +0.000 HD
ATOM    184  H   GLU A  14     -24.163  -1.706  20.382  1.00  0.00    +0.000 HD
ATOM    185  H   SER A  15     -19.693  -3.076  17.159  1.00  0.00    +0.000 HD
ATOM    186  H   SER A  15     -19.913  -1.151  16.583  1.00  0.00    +0.000 HD
ATOM    187  H   SER A  16     -22.123  -0.309  20.099  1.00  0.00    +0.000 HD
ATOM    188  H   SER A  16     -23.064   3.224  19.416  1.00  0.00    +0.000 HD
ATOM    189  H   ASP A  17     -21.041   1.295  18.167  1.00  0.00    +0.000 HD
ATOM    190  H   ASP A  17     -17.145   1.369  16.704  1.00  0.00    +0.000 HD
ATOM    191  H   LEU A  18     -22.917   1.714  14.513  1.00  0.00    +0.000 HD
ATOM    192  H   VAL A  19     -19.736   1.098  11.389  1.00  0.00    +0.000 HD
ATOM    193  H   ARG A  20     -22.800   0.646   8.030  1.00  0.00    +0.000 HD
ATOM    194  H   ARG A  20     -25.217  -0.044   3.810  1.00  0.00    +0.000 HD
ATOM    195  H   ARG A  20     -25.176   1.626   3.463  1.00  0.00    +0.000 HD
ATOM    196  H   ARG A  20     -23.309   2.533   2.540  1.00  0.00    +0.000 HD
ATOM    197  H   ARG A  20     -21.968   1.528   2.221  1.00  0.00    +0.000 HD
ATOM    198  H   ARG A  21     -21.871   3.107   7.073  1.00  0.00    +0.000 HD
ATOM    199  H   ARG A  21     -21.239   6.112   6.702  1.00  0.00    +0.000 HD
ATOM    200  H   ARG A  21     -26.706  -0.302   6.676  1.00  0.00    +0.000 HD
ATOM    201  H   ARG A  21     -25.130   0.046   6.127  1.00  0.00    +0.000 HD
ATOM    202  H   ARG A  21     -28.331   1.152   6.416  1.00  0.00    +0.000 HD
ATOM    203  H   ARG A  21     -28.056   2.656   5.660  1.00  0.00    +0.000 HD
ENDROOT
TORSDOF 0
