REMARK  Name = /var/folders/yp/yjbh3p597675h2qddgqr02y00000gn/T/tmpn1vl6hpd.pdb
REMARK     285 UNITARY VALUES FOR THE UNIT CELL AUTOMATICALLY SET
REMARK     285 BY MDANALYSIS PDBWRITER BECAUSE UNIT CELL INFORMATION
REMARK     285 WAS MISSING.
REMARK     285 PROTEIN DATA BANK CONVENTIONS REQUIRE THAT
REMARK     285 CRYST1 RECORD IS INCLUDED, BUT THE VALUES ON
REMARK     285 THIS RECORD ARE MEANINGLESS.
REMARK     285 UNITARY VALUES FOR THE UNIT CELL AUTOMATICALLY SET
REMARK     285 BY MDANALYSIS PDBWRITER BECAUSE UNIT CELL INFORMATION
REMARK     285 WAS MISSING.
REMARK     285 PROTEIN DATA BANK CONVENTIONS REQUIRE THAT
REMARK     285 CRYST1 RECORD IS INCLUDED, BUT THE VALUES ON
REMARK     285 THIS RECORD ARE MEANINGLESS.
REMARK                            x       y       z     vdW  Elec       q    Type
REMARK                         _______ _______ _______ _____ _____    ______ ____
ROOT
ATOM      1  N   MET A   1      14.917  30.065  -2.031  1.00  0.00    -0.123 NA
ATOM      2  CA  MET A   1      13.730  29.490  -2.658  1.00  0.00    +0.170 C 
ATOM      3  C   MET A   1      13.856  27.981  -2.783  1.00  0.00    +0.259 C 
ATOM      4  O   MET A   1      14.915  27.471  -3.144  1.00  0.00    -0.272 OA
ATOM      5  CB  MET A   1      13.496  30.095  -4.033  1.00  0.00    +0.040 C 
ATOM      6  CG  MET A   1      12.677  29.210  -4.957  1.00  0.00    +0.060 C 
ATOM      7  SD  MET A   1      12.483  29.919  -6.612  1.00  0.00    -0.139 S 
ATOM      8  CE  MET A   1      13.430  28.750  -7.583  1.00  0.00    +0.069 C 
ATOM      9  N   LYS A   2      12.776  27.266  -2.484  1.00  0.00    -0.197 N 
ATOM     10  CA  LYS A   2      12.820  25.807  -2.434  1.00  0.00    +0.173 C 
ATOM     11  C   LYS A   2      12.844  25.212  -3.834  1.00  0.00    +0.262 C 
ATOM     12  O   LYS A   2      12.134  25.681  -4.723  1.00  0.00    -0.271 OA
ATOM     13  CB  LYS A   2      11.628  25.255  -1.670  1.00  0.00    +0.031 C 
ATOM     14  CG  LYS A   2      11.776  23.797  -1.268  1.00  0.00    +0.009 C 
ATOM     15  CD  LYS A   2      10.437  23.165  -0.928  1.00  0.00    +0.049 C 
ATOM     16  CE  LYS A   2       9.608  22.983  -2.116  1.00  0.00    +0.096 C 
ATOM     17  NZ  LYS A   2       8.854  21.916  -2.359  1.00  0.00    -0.151 NA
ATOM     18  N   GLN A   3      13.660  24.181  -4.030  1.00  0.00    -0.196 N 
ATOM     19  CA  GLN A   3      13.206  22.971  -4.709  1.00  0.00    +0.173 C 
ATOM     20  C   GLN A   3      13.176  21.787  -3.755  1.00  0.00    +0.262 C 
ATOM     21  O   GLN A   3      14.086  21.612  -2.948  1.00  0.00    -0.271 OA
ATOM     22  CB  GLN A   3      14.104  22.646  -5.893  1.00  0.00    +0.041 C 
ATOM     23  CG  GLN A   3      13.870  23.537  -7.102  1.00  0.00    +0.091 C 
ATOM     24  CD  GLN A   3      14.970  23.415  -8.143  1.00  0.00    +0.261 C 
ATOM     25  OE1 GLN A   3      15.792  22.488  -8.095  1.00  0.00    -0.272 OA
ATOM     26  NE2 GLN A   3      14.995  24.346  -9.092  1.00  0.00    -0.088 N 
ATOM     27  N   ALA A   4      12.126  20.975  -3.848  1.00  0.00    -0.196 N 
ATOM     28  CA  ALA A   4      12.288  19.525  -3.884  1.00  0.00    +0.173 C 
ATOM     29  C   ALA A   4      12.985  19.085  -5.161  1.00  0.00    +0.262 C 
ATOM     30  O   ALA A   4      12.861  19.735  -6.198  1.00  0.00    -0.271 OA
ATOM     31  CB  ALA A   4      10.942  18.828  -3.774  1.00  0.00    +0.033 C 
ATOM     32  N   VAL A   5      13.720  17.979  -5.088  1.00  0.00    -0.196 N 
ATOM     33  CA  VAL A   5      13.669  16.962  -6.135  1.00  0.00    +0.175 C 
ATOM     34  C   VAL A   5      12.316  16.270  -6.116  1.00  0.00    +0.262 C 
ATOM     35  O   VAL A   5      11.858  15.826  -5.065  1.00  0.00    -0.271 OA
ATOM     36  CB  VAL A   5      14.771  15.927  -5.975  1.00  0.00    +0.061 C 
ATOM     37  CG1 VAL A   5      16.096  16.596  -5.621  1.00  0.00    +0.037 C 
ATOM     38  CG2 VAL A   5      14.423  14.949  -4.854  1.00  0.00    +0.144 C 
ATOM     39  N   ASN A   6      11.677  16.179  -7.278  1.00  0.00    -0.196 N 
ATOM     40  CA  ASN A   6      11.610  14.919  -8.012  1.00  0.00    +0.182 C 
ATOM     41  C   ASN A   6      12.926  14.609  -8.709  1.00  0.00    +0.262 C 
ATOM     42  O   ASN A   6      13.337  13.452  -8.780  1.00  0.00    -0.271 OA
ATOM     43  CB  ASN A   6      10.488  14.944  -9.037  1.00  0.00    +0.120 C 
ATOM     44  CG  ASN A   6      10.231  13.581  -9.657  1.00  0.00    +0.263 C 
ATOM     45  OD1 ASN A   6       9.902  12.622  -8.960  1.00  0.00    -0.272 OA
ATOM     46  ND2 ASN A   6      10.381  13.491 -10.975  1.00  0.00    -0.088 N 
ATOM     47  N   ALA A   7      13.588  15.643  -9.219  1.00  0.00    -0.196 N 
ATOM     48  CA  ALA A   7      13.984  15.672 -10.625  1.00  0.00    +0.173 C 
ATOM     49  C   ALA A   7      14.912  14.514 -10.955  1.00  0.00    +0.262 C 
ATOM     50  O   ALA A   7      15.759  14.143 -10.144  1.00  0.00    -0.271 OA
ATOM     51  CB  ALA A   7      14.671  16.985 -10.964  1.00  0.00    +0.033 C 
ATOM     52  N   LEU A   8      14.752  13.943 -12.146  1.00  0.00    -0.196 N 
ATOM     53  CA  LEU A   8      15.894  13.646 -13.006  1.00  0.00    +0.174 C 
ATOM     54  C   LEU A   8      16.134  14.776 -13.993  1.00  0.00    +0.259 C 
ATOM     55  O   LEU A   8      17.011  14.680 -14.852  1.00  0.00    -0.316 OA
ATOM     56  CB  LEU A   8      15.673  12.347 -13.766  1.00  0.00    +0.031 C 
ATOM     57  CG  LEU A   8      15.766  11.063 -12.940  1.00  0.00    +0.002 C 
ATOM     58  CD1 LEU A   8      16.323   9.928 -13.792  1.00  0.00    +0.000 C 
ATOM     59  CD2 LEU A   8      14.377  10.494 -12.675  1.00  0.00    +0.000 C 
ATOM     60  N   LEU A   9      15.357  15.849 -13.873  1.00  0.00    -0.230 NA
ATOM     61  CA  LEU A   9      15.391  16.926 -14.858  1.00  0.00    +0.184 C 
ATOM     62  C   LEU A   9      16.725  17.655 -14.819  1.00  0.00    +0.264 C 
ATOM     63  O   LEU A   9      17.231  17.973 -13.745  1.00  0.00    -0.271 OA
ATOM     64  CB  LEU A   9      14.264  17.916 -14.612  1.00  0.00    +0.034 C 
ATOM     65  CG  LEU A   9      12.970  17.670 -15.389  1.00  0.00    +0.002 C 
ATOM     66  CD1 LEU A   9      12.506  18.957 -16.063  1.00  0.00    +0.000 C 
ATOM     67  CD2 LEU A   9      11.798  17.475 -14.432  1.00  0.00    +0.000 C 
ATOM     68  N   VAL A  10      17.294  17.921 -15.992  1.00  0.00    -0.196 N 
ATOM     69  CA  VAL A  10      17.990  16.887 -16.750  1.00  0.00    +0.173 C 
ATOM     70  C   VAL A  10      19.456  17.261 -16.902  1.00  0.00    +0.262 C 
ATOM     71  O   VAL A  10      19.796  18.441 -16.967  1.00  0.00    -0.271 OA
ATOM     72  CB  VAL A  10      17.374  16.679 -18.124  1.00  0.00    +0.031 C 
ATOM     73  CG1 VAL A  10      17.212  15.190 -18.422  1.00  0.00    +0.027 C 
ATOM     74  CG2 VAL A  10      15.994  17.326 -18.191  1.00  0.00    +0.002 C 
ATOM     75  N   PHE A  11      20.326  16.255 -16.960  1.00  0.00    -0.196 N 
ATOM     76  CA  PHE A  11      20.980  15.887 -18.212  1.00  0.00    +0.177 C 
ATOM     77  C   PHE A  11      20.161  14.851 -18.964  1.00  0.00    +0.262 C 
ATOM     78  O   PHE A  11      20.025  14.927 -20.183  1.00  0.00    -0.271 OA
ATOM     79  CB  PHE A  11      22.376  15.340 -17.953  1.00  0.00    +0.057 C 
ATOM     80  CG  PHE A  11      23.475  16.307 -18.281  1.00  0.00    -0.020 A 
ATOM     81  CD1 PHE A  11      23.697  17.411 -17.466  1.00  0.00    -0.004 A 
ATOM     82  CE1 PHE A  11      24.716  18.306 -17.771  1.00  0.00    -0.000 A 
ATOM     83  CD2 PHE A  11      24.274  16.095 -19.399  1.00  0.00    -0.004 A 
ATOM     84  CE2 PHE A  11      25.294  16.991 -19.702  1.00  0.00    -0.000 A 
ATOM     85  CZ  PHE A  11      25.514  18.095 -18.889  1.00  0.00    -0.000 A 
ATOM     86  N   PHE A  12      19.617  13.880 -18.237  1.00  0.00    -0.203 N 
ATOM     87  CA  PHE A  12      18.451  14.126 -17.391  1.00  0.00    +0.127 C 
ATOM     88  C   PHE A  12      18.868  14.314 -15.942  1.00  0.00    +0.257 C 
ATOM     89  O   PHE A  12      18.245  15.079 -15.207  1.00  0.00    -0.154 OA
ATOM     90  CB  PHE A  12      17.458  12.980 -17.490  1.00  0.00    +0.050 C 
ATOM     91  CG  PHE A  12      17.322  12.412 -18.872  1.00  0.00    -0.020 A 
ATOM     92  CD1 PHE A  12      16.649  13.126 -19.854  1.00  0.00    -0.004 A 
ATOM     93  CE1 PHE A  12      16.523  12.600 -21.134  1.00  0.00    -0.000 A 
ATOM     94  CD2 PHE A  12      17.872  11.169 -19.168  1.00  0.00    -0.004 A 
ATOM     95  CE2 PHE A  12      17.747  10.643 -20.448  1.00  0.00    -0.000 A 
ATOM     96  CZ  PHE A  12      17.073  11.356 -21.431  1.00  0.00    -0.000 A 
ATOM     97  N   ALA A  13      19.922  13.613 -15.529  1.00  0.00    -0.179 NA
ATOM     98  CA  ALA A  13      19.780  12.519 -14.574  1.00  0.00    +0.153 C 
ATOM     99  C   ALA A  13      19.194  13.012 -13.261  1.00  0.00    +0.258 C 
ATOM    100  O   ALA A  13      19.497  14.119 -12.818  1.00  0.00    -0.272 OA
ATOM    101  CB  ALA A  13      21.123  11.856 -14.312  1.00  0.00    +0.029 C 
ATOM    102  N   GLY A  14      18.352  12.192 -12.638  1.00  0.00    -0.194 N 
ATOM    103  CA  GLY A  14      18.692  11.585 -11.354  1.00  0.00    +0.201 C 
ATOM    104  C   GLY A  14      18.379  12.532 -10.208  1.00  0.00    +0.264 C 
ATOM    105  O   GLY A  14      17.556  13.434 -10.350  1.00  0.00    -0.271 OA
ATOM    106  N   SER A  15      19.035  12.326  -9.068  1.00  0.00    -0.194 N 
ATOM    107  CA  SER A  15      18.478  12.744  -7.785  1.00  0.00    +0.205 C 
ATOM    108  C   SER A  15      18.383  14.258  -7.692  1.00  0.00    +0.264 C 
ATOM    109  O   SER A  15      19.124  14.974  -8.366  1.00  0.00    -0.271 OA
ATOM    110  CB  SER A  15      19.323  12.218  -6.637  1.00  0.00    +0.213 C 
ATOM    111  OG  SER A  15      20.541  12.936  -6.539  1.00  0.00    -0.218 OA
ATOM    112  N   SER A  16      17.472  14.749  -6.856  1.00  0.00    -0.194 N 
ATOM    113  CA  SER A  16      17.840  15.667  -5.783  1.00  0.00    +0.200 C 
ATOM    114  C   SER A  16      18.673  14.966  -4.721  1.00  0.00    +0.264 C 
ATOM    115  O   SER A  16      19.882  14.804  -4.882  1.00  0.00    -0.271 OA
ATOM    116  CB  SER A  16      16.600  16.265  -5.140  1.00  0.00    +0.144 C 
ATOM    117  OG  SER A  16      15.993  15.336  -4.257  1.00  0.00    -0.354 OA
ATOM    118  N   ASP A  17      18.027  14.553  -3.634  1.00  0.00    -0.196 N 
ATOM    119  CA  ASP A  17      18.070  15.315  -2.389  1.00  0.00    +0.184 C 
ATOM    120  C   ASP A  17      19.220  14.855  -1.508  1.00  0.00    +0.262 C 
ATOM    121  O   ASP A  17      19.602  15.548  -0.566  1.00  0.00    -0.271 OA
ATOM    122  CB  ASP A  17      16.761  15.182  -1.626  1.00  0.00    +0.145 C 
ATOM    123  CG  ASP A  17      15.623  15.966  -2.257  1.00  0.00    +0.367 C 
ATOM    124  OD1 ASP A  17      15.883  16.996  -2.918  1.00  0.00    -0.246 OA
ATOM    125  OD2 ASP A  17      14.455  15.551  -2.089  1.00  0.00    -0.246 OA
ATOM    126  N   ALA A  18      19.770  13.683  -1.810  1.00  0.00    -0.196 N 
ATOM    127  CA  ALA A  18      20.165  12.736  -0.771  1.00  0.00    +0.173 C 
ATOM    128  C   ALA A  18      21.652  12.427  -0.849  1.00  0.00    +0.262 C 
ATOM    129  O   ALA A  18      22.160  12.070  -1.910  1.00  0.00    -0.271 OA
ATOM    130  CB  ALA A  18      19.370  11.446  -0.885  1.00  0.00    +0.033 C 
ATOM    131  N   ILE A  19      22.349  12.563   0.275  1.00  0.00    -0.196 N 
ATOM    132  CA  ILE A  19      22.412  11.493   1.265  1.00  0.00    +0.173 C 
ATOM    133  C   ILE A  19      21.873  11.992   2.596  1.00  0.00    +0.262 C 
ATOM    134  O   ILE A  19      22.132  13.129   2.988  1.00  0.00    -0.271 OA
ATOM    135  CB  ILE A  19      23.829  10.975   1.454  1.00  0.00    +0.033 C 
ATOM    136  CG1 ILE A  19      23.967   9.565   0.883  1.00  0.00    +0.050 C 
ATOM    137  CG2 ILE A  19      24.199  10.961   2.935  1.00  0.00    +0.002 C 
ATOM    138  CD1 ILE A  19      25.390   9.033   0.893  1.00  0.00    +0.209 C 
ATOM    139  N   ARG A  20      21.122  11.142   3.292  1.00  0.00    -0.196 N 
ATOM    140  CA  ARG A  20      21.631  10.487   4.493  1.00  0.00    +0.173 C 
ATOM    141  C   ARG A  20      22.651   9.417   4.139  1.00  0.00    +0.262 C 
ATOM    142  O   ARG A  20      23.569   9.148   4.913  1.00  0.00    -0.271 OA
ATOM    143  CB  ARG A  20      20.497   9.863   5.292  1.00  0.00    +0.033 C 
ATOM    144  CG  ARG A  20      20.914   9.375   6.669  1.00  0.00    +0.029 C 
ATOM    145  CD  ARG A  20      20.010   8.261   7.170  1.00  0.00    +0.129 C 
ATOM    146  NE  ARG A  20      20.399   7.807   8.502  1.00  0.00    -0.234 NA
ATOM    147  CZ  ARG A  20      20.618   6.539   8.837  1.00  0.00    +0.284 C 
ATOM    148  NH1 ARG A  20      20.572   5.577   7.921  1.00  0.00    -0.104 N 
ATOM    149  NH2 ARG A  20      20.885   6.231  10.104  1.00  0.00    -0.104 N 
ATOM    150  N   ARG A  21      22.492   8.804   2.969  1.00  0.00    -0.194 N 
ATOM    151  CA  ARG A  21      22.924   7.426   2.768  1.00  0.00    +0.194 C 
ATOM    152  C   ARG A  21      24.241   7.372   2.011  1.00  0.00    +0.337 C 
ATOM    153  O   ARG A  21      25.139   6.612   2.369  1.00  0.00    -0.248 OA
ATOM    154  CB  ARG A  21      21.872   6.631   2.013  1.00  0.00    +0.035 C 
ATOM    155  CG  ARG A  21      20.474   7.220   2.108  1.00  0.00    +0.029 C 
ATOM    156  CD  ARG A  21      19.494   6.497   1.195  1.00  0.00    +0.129 C 
ATOM    157  NE  ARG A  21      19.061   5.226   1.768  1.00  0.00    -0.234 NA
ATOM    158  CZ  ARG A  21      17.844   4.708   1.634  1.00  0.00    +0.284 C 
ATOM    159  NH1 ARG A  21      17.116   4.963   0.550  1.00  0.00    -0.104 N 
ATOM    160  NH2 ARG A  21      17.351   3.930   2.593  1.00  0.00    -0.104 N 
ATOM    161  OXT ARG A  21      24.426   8.088   1.027  1.00  0.00    -0.447 OA
ATOM    162  H   MET A   1      14.807  31.076  -1.959  1.00  0.00    +0.000 HD
ATOM    163  H   MET A   1      15.738  29.851  -2.599  1.00  0.00    +0.000 HD
ATOM    164  H   LYS A   2      11.930  27.730  -2.291  1.00  0.00    +0.000 HD
ATOM    165  H   LYS A   2       8.829  21.174  -1.713  1.00  0.00    +0.000 HD
ATOM    166  H   GLN A   3      14.590  24.235  -3.710  1.00  0.00    +0.000 HD
ATOM    167  H   GLN A   3      15.686  24.317  -9.792  1.00  0.00    +0.000 HD
ATOM    168  H   GLN A   3      14.323  25.065  -9.094  1.00  0.00    +0.000 HD
ATOM    169  H   ALA A   4      11.221  21.360  -3.892  1.00  0.00    +0.000 HD
ATOM    170  H   VAL A   5      14.310  17.842  -4.313  1.00  0.00    +0.000 HD
ATOM    171  H   ASN A   6      11.240  16.979  -7.652  1.00  0.00    +0.000 HD
ATOM    172  H   ASN A   6      10.645  14.284 -11.496  1.00  0.00    +0.000 HD
ATOM    173  H   ASN A   6      10.227  12.632 -11.431  1.00  0.00    +0.000 HD
ATOM    174  H   ALA A   7      13.817  16.404  -8.638  1.00  0.00    +0.000 HD
ATOM    175  H   LEU A   8      13.845  13.715 -12.453  1.00  0.00    +0.000 HD
ATOM    176  H   VAL A  10      17.245  18.835 -16.355  1.00  0.00    +0.000 HD
ATOM    177  H   PHE A  11      20.532  15.749 -16.141  1.00  0.00    +0.000 HD
ATOM    178  H   PHE A  12      20.007  12.977 -18.269  1.00  0.00    +0.000 HD
ATOM    179  H   ALA A  13      20.566  14.283 -15.108  1.00  0.00    +0.000 HD
ATOM    180  H   GLY A  14      17.482  11.990 -13.052  1.00  0.00    +0.000 HD
ATOM    181  H   SER A  15      19.913  11.883  -9.091  1.00  0.00    +0.000 HD
ATOM    182  H   SER A  15      20.352  13.873  -6.374  1.00  0.00    +0.000 HD
ATOM    183  H   SER A  16      16.528  14.488  -6.965  1.00  0.00    +0.000 HD
ATOM    184  H   ASP A  17      17.510  13.716  -3.670  1.00  0.00    +0.000 HD
ATOM    185  H   ASP A  17      14.301  14.775  -1.587  1.00  0.00    +0.000 HD
ATOM    186  H   ALA A  18      19.914  13.448  -2.756  1.00  0.00    +0.000 HD
ATOM    187  H   ILE A  19      22.833  13.404   0.444  1.00  0.00    +0.000 HD
ATOM    188  H   ARG A  20      20.204  10.951   2.990  1.00  0.00    +0.000 HD
ATOM    189  H   ARG A  20      20.376   5.800   6.983  1.00  0.00    +0.000 HD
ATOM    190  H   ARG A  20      20.735   4.641   8.180  1.00  0.00    +0.000 HD
ATOM    191  H   ARG A  20      20.920   6.940  10.786  1.00  0.00    +0.000 HD
ATOM    192  H   ARG A  20      21.047   5.293  10.359  1.00  0.00    +0.000 HD
ATOM    193  H   ARG A  21      22.072   9.290   2.223  1.00  0.00    +0.000 HD
ATOM    194  H   ARG A  21      17.477   5.537  -0.162  1.00  0.00    +0.000 HD
ATOM    195  H   ARG A  21      16.215   4.576   0.460  1.00  0.00    +0.000 HD
ATOM    196  H   ARG A  21      17.887   3.740   3.396  1.00  0.00    +0.000 HD
ATOM    197  H   ARG A  21      16.450   3.545   2.500  1.00  0.00    +0.000 HD
ENDROOT
TORSDOF 0
