REMARK  Name = /var/folders/yp/yjbh3p597675h2qddgqr02y00000gn/T/tmp9gc26q92.pdb
REMARK     285 UNITARY VALUES FOR THE UNIT CELL AUTOMATICALLY SET
REMARK     285 BY MDANALYSIS PDBWRITER BECAUSE UNIT CELL INFORMATION
REMARK     285 WAS MISSING.
REMARK     285 PROTEIN DATA BANK CONVENTIONS REQUIRE THAT
REMARK     285 CRYST1 RECORD IS INCLUDED, BUT THE VALUES ON
REMARK     285 THIS RECORD ARE MEANINGLESS.
REMARK     285 UNITARY VALUES FOR THE UNIT CELL AUTOMATICALLY SET
REMARK     285 BY MDANALYSIS PDBWRITER BECAUSE UNIT CELL INFORMATION
REMARK     285 WAS MISSING.
REMARK     285 PROTEIN DATA BANK CONVENTIONS REQUIRE THAT
REMARK     285 CRYST1 RECORD IS INCLUDED, BUT THE VALUES ON
REMARK     285 THIS RECORD ARE MEANINGLESS.
REMARK                            x       y       z     vdW  Elec       q    Type
REMARK                         _______ _______ _______ _____ _____    ______ ____
ROOT
ATOM      1  N   MET A   1      -8.700  18.452   1.487  1.00  0.00    -0.198 NA
ATOM      2  CA  MET A   1     -10.144  18.488   1.274  1.00  0.00    +0.152 C 
ATOM      3  C   MET A   1     -10.889  18.440   2.598  1.00  0.00    +0.258 C 
ATOM      4  O   MET A   1     -10.409  17.851   3.565  1.00  0.00    -0.272 OA
ATOM      5  CB  MET A   1     -10.592  17.329   0.398  1.00  0.00    +0.038 C 
ATOM      6  CG  MET A   1     -10.645  15.997   1.128  1.00  0.00    +0.061 C 
ATOM      7  SD  MET A   1      -9.146  15.667   2.088  1.00  0.00    -0.121 S 
ATOM      8  CE  MET A   1      -8.090  16.994   1.516  1.00  0.00    +0.146 C 
ATOM      9  N   LYS A   2     -12.065  19.060   2.643  1.00  0.00    -0.197 N 
ATOM     10  CA  LYS A   2     -12.878  19.060   3.856  1.00  0.00    +0.173 C 
ATOM     11  C   LYS A   2     -13.737  17.809   3.941  1.00  0.00    +0.262 C 
ATOM     12  O   LYS A   2     -14.146  17.262   2.917  1.00  0.00    -0.271 OA
ATOM     13  CB  LYS A   2     -13.769  20.291   3.909  1.00  0.00    +0.031 C 
ATOM     14  CG  LYS A   2     -13.004  21.598   4.031  1.00  0.00    +0.009 C 
ATOM     15  CD  LYS A   2     -13.940  22.792   4.141  1.00  0.00    +0.049 C 
ATOM     16  CE  LYS A   2     -14.568  23.105   2.861  1.00  0.00    +0.096 C 
ATOM     17  NZ  LYS A   2     -15.363  24.148   2.642  1.00  0.00    -0.151 NA
ATOM     18  N   GLN A   3     -14.008  17.353   5.160  1.00  0.00    -0.196 N 
ATOM     19  CA  GLN A   3     -15.378  17.069   5.577  1.00  0.00    +0.173 C 
ATOM     20  C   GLN A   3     -16.144  18.354   5.851  1.00  0.00    +0.262 C 
ATOM     21  O   GLN A   3     -15.616  19.275   6.472  1.00  0.00    -0.271 OA
ATOM     22  CB  GLN A   3     -15.396  16.192   6.818  1.00  0.00    +0.041 C 
ATOM     23  CG  GLN A   3     -15.795  16.933   8.085  1.00  0.00    +0.091 C 
ATOM     24  CD  GLN A   3     -15.723  16.056   9.325  1.00  0.00    +0.261 C 
ATOM     25  OE1 GLN A   3     -14.824  15.212   9.457  1.00  0.00    -0.272 OA
ATOM     26  NE2 GLN A   3     -16.666  16.247  10.242  1.00  0.00    -0.088 N 
ATOM     27  N   ALA A   4     -17.389  18.416   5.388  1.00  0.00    -0.196 N 
ATOM     28  CA  ALA A   4     -18.483  18.920   6.213  1.00  0.00    +0.173 C 
ATOM     29  C   ALA A   4     -18.819  17.947   7.330  1.00  0.00    +0.262 C 
ATOM     30  O   ALA A   4     -19.353  18.342   8.365  1.00  0.00    -0.271 OA
ATOM     31  CB  ALA A   4     -19.722  19.174   5.370  1.00  0.00    +0.033 C 
ATOM     32  N   VAL A   5     -18.508  16.671   7.122  1.00  0.00    -0.196 N 
ATOM     33  CA  VAL A   5     -19.121  15.601   7.904  1.00  0.00    +0.173 C 
ATOM     34  C   VAL A   5     -18.046  14.824   8.646  1.00  0.00    +0.262 C 
ATOM     35  O   VAL A   5     -17.015  14.480   8.070  1.00  0.00    -0.271 OA
ATOM     36  CB  VAL A   5     -19.924  14.649   7.032  1.00  0.00    +0.029 C 
ATOM     37  CG1 VAL A   5     -21.020  13.964   7.845  1.00  0.00    +0.002 C 
ATOM     38  CG2 VAL A   5     -20.593  15.411   5.888  1.00  0.00    +0.002 C 
ATOM     39  N   ASN A   6     -18.287  14.547   9.924  1.00  0.00    -0.196 N 
ATOM     40  CA  ASN A   6     -17.387  13.698  10.700  1.00  0.00    +0.182 C 
ATOM     41  C   ASN A   6     -17.653  12.223  10.441  1.00  0.00    +0.262 C 
ATOM     42  O   ASN A   6     -16.794  11.380  10.699  1.00  0.00    -0.271 OA
ATOM     43  CB  ASN A   6     -17.515  13.983  12.186  1.00  0.00    +0.120 C 
ATOM     44  CG  ASN A   6     -16.271  13.596  12.968  1.00  0.00    +0.263 C 
ATOM     45  OD1 ASN A   6     -16.213  12.528  13.574  1.00  0.00    -0.272 OA
ATOM     46  ND2 ASN A   6     -15.267  14.467  12.952  1.00  0.00    -0.088 N 
ATOM     47  N   ALA A   7     -18.840  11.911   9.932  1.00  0.00    -0.196 N 
ATOM     48  CA  ALA A   7     -19.341  10.540   9.952  1.00  0.00    +0.173 C 
ATOM     49  C   ALA A   7     -18.578   9.665   8.970  1.00  0.00    +0.262 C 
ATOM     50  O   ALA A   7     -18.499   8.450   9.148  1.00  0.00    -0.271 OA
ATOM     51  CB  ALA A   7     -20.824  10.501   9.619  1.00  0.00    +0.033 C 
ATOM     52  N   LEU A   8     -18.018  10.281   7.933  1.00  0.00    -0.196 N 
ATOM     53  CA  LEU A   8     -18.350   9.914   6.560  1.00  0.00    +0.173 C 
ATOM     54  C   LEU A   8     -17.569   8.685   6.125  1.00  0.00    +0.262 C 
ATOM     55  O   LEU A   8     -16.410   8.516   6.503  1.00  0.00    -0.271 OA
ATOM     56  CB  LEU A   8     -18.059  11.063   5.608  1.00  0.00    +0.031 C 
ATOM     57  CG  LEU A   8     -16.582  11.351   5.334  1.00  0.00    +0.002 C 
ATOM     58  CD1 LEU A   8     -15.717  10.775   6.447  1.00  0.00    +0.000 C 
ATOM     59  CD2 LEU A   8     -16.276  12.829   5.542  1.00  0.00    +0.000 C 
ATOM     60  N   LEU A   9     -18.201   7.828   5.329  1.00  0.00    -0.196 N 
ATOM     61  CA  LEU A   9     -17.830   6.416   5.286  1.00  0.00    +0.173 C 
ATOM     62  C   LEU A   9     -16.507   6.224   4.561  1.00  0.00    +0.262 C 
ATOM     63  O   LEU A   9     -16.066   7.104   3.823  1.00  0.00    -0.271 OA
ATOM     64  CB  LEU A   9     -18.909   5.595   4.598  1.00  0.00    +0.031 C 
ATOM     65  CG  LEU A   9     -20.116   5.215   5.457  1.00  0.00    +0.002 C 
ATOM     66  CD1 LEU A   9     -20.813   3.991   4.875  1.00  0.00    +0.000 C 
ATOM     67  CD2 LEU A   9     -21.242   6.229   5.280  1.00  0.00    +0.000 C 
ATOM     68  N   VAL A  10     -15.873   5.073   4.769  1.00  0.00    -0.196 N 
ATOM     69  CA  VAL A  10     -14.471   4.902   4.402  1.00  0.00    +0.173 C 
ATOM     70  C   VAL A  10     -14.311   5.047   2.898  1.00  0.00    +0.262 C 
ATOM     71  O   VAL A  10     -15.211   4.695   2.137  1.00  0.00    -0.271 OA
ATOM     72  CB  VAL A  10     -13.932   3.551   4.843  1.00  0.00    +0.029 C 
ATOM     73  CG1 VAL A  10     -14.475   3.176   6.220  1.00  0.00    +0.002 C 
ATOM     74  CG2 VAL A  10     -14.353   2.463   3.858  1.00  0.00    +0.002 C 
ATOM     75  N   PHE A  11     -13.164   5.565   2.466  1.00  0.00    -0.196 N 
ATOM     76  CA  PHE A  11     -12.750   5.438   1.072  1.00  0.00    +0.177 C 
ATOM     77  C   PHE A  11     -12.094   4.090   0.825  1.00  0.00    +0.262 C 
ATOM     78  O   PHE A  11     -11.660   3.800  -0.289  1.00  0.00    -0.271 OA
ATOM     79  CB  PHE A  11     -11.784   6.550   0.692  1.00  0.00    +0.057 C 
ATOM     80  CG  PHE A  11     -12.426   7.901   0.587  1.00  0.00    -0.020 A 
ATOM     81  CD1 PHE A  11     -13.366   8.150  -0.407  1.00  0.00    -0.004 A 
ATOM     82  CE1 PHE A  11     -13.961   9.402  -0.502  1.00  0.00    -0.000 A 
ATOM     83  CD2 PHE A  11     -12.082   8.905   1.485  1.00  0.00    -0.004 A 
ATOM     84  CE2 PHE A  11     -12.678  10.157   1.389  1.00  0.00    -0.000 A 
ATOM     85  CZ  PHE A  11     -13.617  10.407   0.395  1.00  0.00    -0.000 A 
ATOM     86  N   PHE A  12     -12.020   3.264   1.864  1.00  0.00    -0.196 N 
ATOM     87  CA  PHE A  12     -11.632   1.866   1.699  1.00  0.00    +0.177 C 
ATOM     88  C   PHE A  12     -12.811   1.033   1.226  1.00  0.00    +0.262 C 
ATOM     89  O   PHE A  12     -12.630  -0.013   0.605  1.00  0.00    -0.271 OA
ATOM     90  CB  PHE A  12     -11.096   1.294   3.001  1.00  0.00    +0.057 C 
ATOM     91  CG  PHE A  12      -9.618   1.478   3.182  1.00  0.00    -0.020 A 
ATOM     92  CD1 PHE A  12      -8.731   0.552   2.649  1.00  0.00    -0.004 A 
ATOM     93  CE1 PHE A  12      -7.363   0.723   2.817  1.00  0.00    -0.000 A 
ATOM     94  CD2 PHE A  12      -9.137   2.578   3.884  1.00  0.00    -0.004 A 
ATOM     95  CE2 PHE A  12      -7.769   2.748   4.052  1.00  0.00    -0.000 A 
ATOM     96  CZ  PHE A  12      -6.881   1.821   3.520  1.00  0.00    -0.000 A 
ATOM     97  N   ALA A  13     -14.024   1.497   1.519  1.00  0.00    -0.196 N 
ATOM     98  CA  ALA A  13     -15.120   0.595   1.862  1.00  0.00    +0.173 C 
ATOM     99  C   ALA A  13     -15.504  -0.274   0.676  1.00  0.00    +0.262 C 
ATOM    100  O   ALA A  13     -15.937  -1.413   0.849  1.00  0.00    -0.271 OA
ATOM    101  CB  ALA A  13     -16.336   1.379   2.330  1.00  0.00    +0.033 C 
ATOM    102  N   GLY A  14     -15.347   0.261  -0.531  1.00  0.00    -0.194 N 
ATOM    103  CA  GLY A  14     -16.462   0.879  -1.241  1.00  0.00    +0.201 C 
ATOM    104  C   GLY A  14     -16.926   0.001  -2.392  1.00  0.00    +0.264 C 
ATOM    105  O   GLY A  14     -16.389  -1.086  -2.604  1.00  0.00    -0.271 OA
ATOM    106  N   SER A  15     -17.924   0.469  -3.136  1.00  0.00    -0.194 N 
ATOM    107  CA  SER A  15     -18.425  -0.271  -4.290  1.00  0.00    +0.205 C 
ATOM    108  C   SER A  15     -17.543  -0.053  -5.509  1.00  0.00    +0.264 C 
ATOM    109  O   SER A  15     -16.912   0.995  -5.645  1.00  0.00    -0.271 OA
ATOM    110  CB  SER A  15     -19.851   0.143  -4.616  1.00  0.00    +0.213 C 
ATOM    111  OG  SER A  15     -19.888   1.468  -5.118  1.00  0.00    -0.218 OA
ATOM    112  N   SER A  16     -17.497  -1.042  -6.397  1.00  0.00    -0.194 N 
ATOM    113  CA  SER A  16     -16.655  -0.958  -7.587  1.00  0.00    +0.205 C 
ATOM    114  C   SER A  16     -17.145   0.126  -8.533  1.00  0.00    +0.264 C 
ATOM    115  O   SER A  16     -16.371   0.664  -9.323  1.00  0.00    -0.271 OA
ATOM    116  CB  SER A  16     -16.622  -2.291  -8.315  1.00  0.00    +0.213 C 
ATOM    117  OG  SER A  16     -17.898  -2.603  -8.849  1.00  0.00    -0.218 OA
ATOM    118  N   ASP A  17     -18.434   0.446  -8.456  1.00  0.00    -0.196 N 
ATOM    119  CA  ASP A  17     -19.264   0.555  -9.653  1.00  0.00    +0.184 C 
ATOM    120  C   ASP A  17     -19.177   1.950 -10.251  1.00  0.00    +0.262 C 
ATOM    121  O   ASP A  17     -19.562   2.163 -11.399  1.00  0.00    -0.271 OA
ATOM    122  CB  ASP A  17     -20.715   0.226  -9.340  1.00  0.00    +0.145 C 
ATOM    123  CG  ASP A  17     -20.891  -1.145  -8.709  1.00  0.00    +0.367 C 
ATOM    124  OD1 ASP A  17     -19.934  -1.950  -8.720  1.00  0.00    -0.246 OA
ATOM    125  OD2 ASP A  17     -21.998  -1.424  -8.198  1.00  0.00    -0.246 OA
ATOM    126  N   ALA A  18     -18.675   2.903  -9.470  1.00  0.00    -0.196 N 
ATOM    127  CA  ALA A  18     -19.469   4.063  -9.077  1.00  0.00    +0.173 C 
ATOM    128  C   ALA A  18     -18.704   5.354  -9.313  1.00  0.00    +0.262 C 
ATOM    129  O   ALA A  18     -17.475   5.369  -9.267  1.00  0.00    -0.271 OA
ATOM    130  CB  ALA A  18     -19.875   3.971  -7.616  1.00  0.00    +0.033 C 
ATOM    131  N   ILE A  19     -19.429   6.441  -9.565  1.00  0.00    -0.196 N 
ATOM    132  CA  ILE A  19     -19.837   6.784 -10.924  1.00  0.00    +0.173 C 
ATOM    133  C   ILE A  19     -19.209   8.108 -11.331  1.00  0.00    +0.262 C 
ATOM    134  O   ILE A  19     -19.122   9.032 -10.523  1.00  0.00    -0.271 OA
ATOM    135  CB  ILE A  19     -21.349   6.878 -11.056  1.00  0.00    +0.029 C 
ATOM    136  CG1 ILE A  19     -21.924   7.823 -10.003  1.00  0.00    +0.002 C 
ATOM    137  CG2 ILE A  19     -21.984   5.499 -10.900  1.00  0.00    +0.002 C 
ATOM    138  CD1 ILE A  19     -23.330   7.462  -9.551  1.00  0.00    +0.000 C 
ATOM    139  N   ARG A  20     -18.769   8.199 -12.583  1.00  0.00    -0.196 N 
ATOM    140  CA  ARG A  20     -18.609   9.494 -13.238  1.00  0.00    +0.173 C 
ATOM    141  C   ARG A  20     -19.930   9.977 -13.817  1.00  0.00    +0.262 C 
ATOM    142  O   ARG A  20     -20.833   9.181 -14.065  1.00  0.00    -0.271 OA
ATOM    143  CB  ARG A  20     -17.568   9.417 -14.344  1.00  0.00    +0.033 C 
ATOM    144  CG  ARG A  20     -17.934   8.458 -15.465  1.00  0.00    +0.029 C 
ATOM    145  CD  ARG A  20     -17.035   8.639 -16.676  1.00  0.00    +0.129 C 
ATOM    146  NE  ARG A  20     -17.515   7.873 -17.823  1.00  0.00    -0.234 NA
ATOM    147  CZ  ARG A  20     -17.076   8.021 -19.070  1.00  0.00    +0.284 C 
ATOM    148  NH1 ARG A  20     -16.129   8.908 -19.356  1.00  0.00    -0.104 N 
ATOM    149  NH2 ARG A  20     -17.592   7.271 -20.042  1.00  0.00    -0.104 N 
ATOM    150  N   ARG A  21     -20.043  11.286 -14.034  1.00  0.00    -0.194 N 
ATOM    151  CA  ARG A  21     -21.275  11.866 -14.558  1.00  0.00    +0.198 C 
ATOM    152  C   ARG A  21     -21.191  12.056 -16.064  1.00  0.00    +0.384 C 
ATOM    153  O   ARG A  21     -22.138  12.527 -16.689  1.00  0.00    -0.244 OA
ATOM    154  CB  ARG A  21     -21.573  13.199 -13.894  1.00  0.00    +0.035 C 
ATOM    155  CG  ARG A  21     -21.919  13.086 -12.418  1.00  0.00    +0.029 C 
ATOM    156  CD  ARG A  21     -21.012  13.953 -11.557  1.00  0.00    +0.129 C 
ATOM    157  NE  ARG A  21     -20.673  13.294 -10.299  1.00  0.00    -0.234 NA
ATOM    158  CZ  ARG A  21     -19.934  13.836  -9.335  1.00  0.00    +0.284 C 
ATOM    159  NH1 ARG A  21     -19.413  15.050  -9.482  1.00  0.00    -0.104 N 
ATOM    160  NH2 ARG A  21     -19.716  13.154  -8.215  1.00  0.00    -0.104 N 
ATOM    161  OXT ARG A  21     -20.171  11.743 -16.677  1.00  0.00    -0.244 OA
ATOM    162  H   MET A   1      -8.251  18.971   0.732  1.00  0.00    +0.000 HD
ATOM    163  H   LYS A   2     -12.395  19.528   1.842  1.00  0.00    +0.000 HD
ATOM    164  H   LYS A   2     -15.566  24.776   3.373  1.00  0.00    +0.000 HD
ATOM    165  H   GLN A   3     -13.270  17.205   5.796  1.00  0.00    +0.000 HD
ATOM    166  H   GLN A   3     -16.668  15.708  11.066  1.00  0.00    +0.000 HD
ATOM    167  H   GLN A   3     -17.362  16.929  10.098  1.00  0.00    +0.000 HD
ATOM    168  H   ALA A   4     -17.577  18.116   4.469  1.00  0.00    +0.000 HD
ATOM    169  H   VAL A   5     -17.850  16.442   6.426  1.00  0.00    +0.000 HD
ATOM    170  H   ASN A   6     -19.087  14.923  10.356  1.00  0.00    +0.000 HD
ATOM    171  H   ASN A   6     -14.436  14.269  13.442  1.00  0.00    +0.000 HD
ATOM    172  H   ASN A   6     -15.354  15.311  12.452  1.00  0.00    +0.000 HD
ATOM    173  H   ALA A   7     -19.395  12.620   9.533  1.00  0.00    +0.000 HD
ATOM    174  H   LEU A   8     -17.365  11.001   8.095  1.00  0.00    +0.000 HD
ATOM    175  H   LEU A   9     -18.934   8.151   4.758  1.00  0.00    +0.000 HD
ATOM    176  H   VAL A  10     -16.359   4.322   5.179  1.00  0.00    +0.000 HD
ATOM    177  H   PHE A  11     -12.583   6.045   3.100  1.00  0.00    +0.000 HD
ATOM    178  H   PHE A  12     -12.231   3.603   2.764  1.00  0.00    +0.000 HD
ATOM    179  H   ALA A  13     -14.186   2.468   1.505  1.00  0.00    +0.000 HD
ATOM    180  H   GLY A  14     -14.458   0.241  -0.955  1.00  0.00    +0.000 HD
ATOM    181  H   SER A  15     -18.334   1.333  -2.904  1.00  0.00    +0.000 HD
ATOM    182  H   SER A  15     -19.539   2.077  -4.449  1.00  0.00    +0.000 HD
ATOM    183  H   SER A  16     -18.042  -1.848  -6.248  1.00  0.00    +0.000 HD
ATOM    184  H   SER A  16     -18.544  -2.665  -8.129  1.00  0.00    +0.000 HD
ATOM    185  H   ASP A  17     -18.836   0.612  -7.573  1.00  0.00    +0.000 HD
ATOM    186  H   ASP A  17     -22.691  -0.793  -8.210  1.00  0.00    +0.000 HD
ATOM    187  H   ALA A  18     -17.748   2.824  -9.150  1.00  0.00    +0.000 HD
ATOM    188  H   ILE A  19     -19.695   7.026  -8.820  1.00  0.00    +0.000 HD
ATOM    189  H   ARG A  20     -18.547   7.378 -13.077  1.00  0.00    +0.000 HD
ATOM    190  H   ARG A  20     -15.745   9.465 -18.641  1.00  0.00    +0.000 HD
ATOM    191  H   ARG A  20     -15.812   9.009 -20.283  1.00  0.00    +0.000 HD
ATOM    192  H   ARG A  20     -17.272   7.375 -20.967  1.00  0.00    +0.000 HD
ATOM    193  H   ARG A  20     -18.294   6.611 -19.835  1.00  0.00    +0.000 HD
ATOM    194  H   ARG A  21     -19.279  11.875 -13.838  1.00  0.00    +0.000 HD
ATOM    195  H   ARG A  21     -22.923  12.770 -16.238  1.00  0.00    +0.000 HD
ATOM    196  H   ARG A  21     -18.867  15.442  -8.762  1.00  0.00    +0.000 HD
ATOM    197  H   ARG A  21     -19.574  15.557 -10.310  1.00  0.00    +0.000 HD
ATOM    198  H   ARG A  21     -19.170  13.549  -7.497  1.00  0.00    +0.000 HD
ATOM    199  H   ARG A  21     -20.100  12.255  -8.103  1.00  0.00    +0.000 HD
ENDROOT
TORSDOF 0
