REMARK  Name = /var/folders/yp/yjbh3p597675h2qddgqr02y00000gn/T/tmpmv5hi9x6.pdb
REMARK   1 CREATED WITH OPENMM 8.6.1, 2026-10-07
REMARK                            x       y       z     vdW  Elec       q    Type
REMARK                         _______ _______ _______ _____ _____    ______ ____
ROOT
ATOM      1  N   MET A   1      14.303   6.111  11.550  1.00  0.00    -0.123 NA
ATOM      2  CA  MET A   1      14.707   4.881  12.264  1.00  0.00    +0.170 C 
ATOM      3  C   MET A   1      14.198   3.654  11.537  1.00  0.00    +0.259 C 
ATOM      4  O   MET A   1      13.045   3.626  11.101  1.00  0.00    -0.272 OA
ATOM      5  CB  MET A   1      14.182   4.883  13.696  1.00  0.00    +0.040 C 
ATOM      6  CG  MET A   1      14.806   3.776  14.554  1.00  0.00    +0.060 C 
ATOM      7  SD  MET A   1      14.691   4.081  16.335  1.00  0.00    -0.139 S 
ATOM      8  CE  MET A   1      15.374   5.762  16.430  1.00  0.00    +0.069 C 
ATOM      9  N   LYS A   2      15.052   2.640  11.376  1.00  0.00    -0.197 N 
ATOM     10  CA  LYS A   2      14.768   1.509  10.488  1.00  0.00    +0.173 C 
ATOM     11  C   LYS A   2      13.595   0.667  10.991  1.00  0.00    +0.262 C 
ATOM     12  O   LYS A   2      13.535   0.351  12.178  1.00  0.00    -0.271 OA
ATOM     13  CB  LYS A   2      16.062   0.692  10.335  1.00  0.00    +0.031 C 
ATOM     14  CG  LYS A   2      16.164  -0.270   9.158  1.00  0.00    +0.004 C 
ATOM     15  CD  LYS A   2      15.892   0.395   7.807  1.00  0.00    +0.021 C 
ATOM     16  CE  LYS A   2      17.158   0.796   7.113  1.00  0.00    +0.109 C 
ATOM     17  NZ  LYS A   2      16.995   1.317   5.745  1.00  0.00    -0.131 NA
ATOM     18  N   GLN A   3      12.652   0.278  10.135  1.00  0.00    -0.196 N 
ATOM     19  CA  GLN A   3      12.895  -0.269   8.793  1.00  0.00    +0.173 C 
ATOM     20  C   GLN A   3      12.653   0.713   7.634  1.00  0.00    +0.262 C 
ATOM     21  O   GLN A   3      11.677   1.443   7.644  1.00  0.00    -0.271 OA
ATOM     22  CB  GLN A   3      12.154  -1.596   8.645  1.00  0.00    +0.041 C 
ATOM     23  CG  GLN A   3      10.831  -1.479   7.881  1.00  0.00    +0.091 C 
ATOM     24  CD  GLN A   3       9.784  -0.709   8.661  1.00  0.00    +0.261 C 
ATOM     25  OE1 GLN A   3       9.629  -0.891   9.861  1.00  0.00    -0.272 OA
ATOM     26  NE2 GLN A   3       9.016   0.146   8.018  1.00  0.00    -0.088 N 
ATOM     27  N   ALA A   4      13.498   0.803   6.613  1.00  0.00    -0.196 N 
ATOM     28  CA  ALA A   4      13.210   0.357   5.266  1.00  0.00    +0.173 C 
ATOM     29  C   ALA A   4      12.817  -1.104   5.175  1.00  0.00    +0.262 C 
ATOM     30  O   ALA A   4      13.392  -1.985   5.815  1.00  0.00    -0.271 OA
ATOM     31  CB  ALA A   4      14.397   0.605   4.330  1.00  0.00    +0.033 C 
ATOM     32  N   VAL A   5      11.835  -1.347   4.326  1.00  0.00    -0.196 N 
ATOM     33  CA  VAL A   5      11.487  -2.696   3.924  1.00  0.00    +0.173 C 
ATOM     34  C   VAL A   5      12.569  -3.244   2.990  1.00  0.00    +0.262 C 
ATOM     35  O   VAL A   5      13.012  -2.565   2.063  1.00  0.00    -0.271 OA
ATOM     36  CB  VAL A   5      10.108  -2.703   3.255  1.00  0.00    +0.029 C 
ATOM     37  CG1 VAL A   5       9.009  -2.267   4.221  1.00  0.00    +0.002 C 
ATOM     38  CG2 VAL A   5      10.036  -1.853   1.982  1.00  0.00    +0.002 C 
ATOM     39  N   ASN A   6      12.946  -4.506   3.192  1.00  0.00    -0.196 N 
ATOM     40  CA  ASN A   6      13.321  -5.389   2.080  1.00  0.00    +0.182 C 
ATOM     41  C   ASN A   6      12.089  -6.080   1.484  1.00  0.00    +0.262 C 
ATOM     42  O   ASN A   6      12.225  -7.011   0.697  1.00  0.00    -0.271 OA
ATOM     43  CB  ASN A   6      14.338  -6.435   2.556  1.00  0.00    +0.120 C 
ATOM     44  CG  ASN A   6      15.723  -5.854   2.698  1.00  0.00    +0.263 C 
ATOM     45  OD1 ASN A   6      16.343  -5.425   1.734  1.00  0.00    -0.272 OA
ATOM     46  ND2 ASN A   6      16.253  -5.834   3.900  1.00  0.00    -0.088 N 
ATOM     47  N   ALA A   7      10.884  -5.677   1.898  1.00  0.00    -0.196 N 
ATOM     48  CA  ALA A   7       9.659  -6.444   1.686  1.00  0.00    +0.173 C 
ATOM     49  C   ALA A   7       9.417  -6.756   0.212  1.00  0.00    +0.262 C 
ATOM     50  O   ALA A   7       8.804  -7.776  -0.101  1.00  0.00    -0.271 OA
ATOM     51  CB  ALA A   7       8.451  -5.701   2.265  1.00  0.00    +0.033 C 
ATOM     52  N   LEU A   8       9.930  -5.915  -0.688  1.00  0.00    -0.196 N 
ATOM     53  CA  LEU A   8      10.038  -6.241  -2.099  1.00  0.00    +0.173 C 
ATOM     54  C   LEU A   8      11.507  -6.345  -2.509  1.00  0.00    +0.262 C 
ATOM     55  O   LEU A   8      12.241  -5.354  -2.476  1.00  0.00    -0.271 OA
ATOM     56  CB  LEU A   8       9.312  -5.165  -2.909  1.00  0.00    +0.031 C 
ATOM     57  CG  LEU A   8       8.686  -5.682  -4.210  1.00  0.00    +0.002 C 
ATOM     58  CD1 LEU A   8       8.397  -4.479  -5.081  1.00  0.00    +0.000 C 
ATOM     59  CD2 LEU A   8       7.323  -6.320  -3.942  1.00  0.00    +0.000 C 
ATOM     60  N   LEU A   9      11.901  -7.525  -2.978  1.00  0.00    -0.196 N 
ATOM     61  CA  LEU A   9      12.966  -7.649  -3.964  1.00  0.00    +0.173 C 
ATOM     62  C   LEU A   9      12.420  -8.280  -5.231  1.00  0.00    +0.262 C 
ATOM     63  O   LEU A   9      11.656  -9.227  -5.169  1.00  0.00    -0.271 OA
ATOM     64  CB  LEU A   9      14.144  -8.489  -3.468  1.00  0.00    +0.031 C 
ATOM     65  CG  LEU A   9      15.005  -7.822  -2.387  1.00  0.00    +0.002 C 
ATOM     66  CD1 LEU A   9      16.474  -8.183  -2.589  1.00  0.00    +0.000 C 
ATOM     67  CD2 LEU A   9      14.670  -8.377  -1.011  1.00  0.00    +0.000 C 
ATOM     68  N   VAL A  10      12.818  -7.788  -6.391  1.00  0.00    -0.196 N 
ATOM     69  CA  VAL A  10      12.137  -6.619  -6.950  1.00  0.00    +0.173 C 
ATOM     70  C   VAL A  10      11.368  -7.040  -8.179  1.00  0.00    +0.262 C 
ATOM     71  O   VAL A  10      11.086  -6.179  -8.968  1.00  0.00    -0.271 OA
ATOM     72  CB  VAL A  10      13.098  -5.455  -7.277  1.00  0.00    +0.029 C 
ATOM     73  CG1 VAL A  10      12.365  -4.114  -7.492  1.00  0.00    +0.002 C 
ATOM     74  CG2 VAL A  10      14.090  -5.209  -6.141  1.00  0.00    +0.002 C 
ATOM     75  N   PHE A  11      11.040  -8.327  -8.353  1.00  0.00    -0.196 N 
ATOM     76  CA  PHE A  11      10.277  -8.846  -9.495  1.00  0.00    +0.177 C 
ATOM     77  C   PHE A  11       8.779  -8.557  -9.397  1.00  0.00    +0.262 C 
ATOM     78  O   PHE A  11       8.071  -8.492 -10.389  1.00  0.00    -0.271 OA
ATOM     79  CB  PHE A  11      10.441 -10.353  -9.608  1.00  0.00    +0.057 C 
ATOM     80  CG  PHE A  11       9.897 -10.883 -10.917  1.00  0.00    -0.020 A 
ATOM     81  CD1 PHE A  11      10.743 -10.957 -12.036  1.00  0.00    -0.004 A 
ATOM     82  CE1 PHE A  11      10.255 -11.457 -13.253  1.00  0.00    -0.000 A 
ATOM     83  CD2 PHE A  11       8.554 -11.289 -11.026  1.00  0.00    -0.004 A 
ATOM     84  CE2 PHE A  11       8.063 -11.774 -12.247  1.00  0.00    -0.000 A 
ATOM     85  CZ  PHE A  11       8.917 -11.867 -13.357  1.00  0.00    -0.000 A 
ATOM     86  N   PHE A  12       8.259  -8.362  -8.199  1.00  0.00    -0.196 N 
ATOM     87  CA  PHE A  12       6.825  -8.450  -7.914  1.00  0.00    +0.177 C 
ATOM     88  C   PHE A  12       6.168  -7.079  -8.026  1.00  0.00    +0.262 C 
ATOM     89  O   PHE A  12       5.001  -6.975  -8.394  1.00  0.00    -0.271 OA
ATOM     90  CB  PHE A  12       6.594  -9.049  -6.525  1.00  0.00    +0.057 C 
ATOM     91  CG  PHE A  12       7.491 -10.209  -6.157  1.00  0.00    -0.020 A 
ATOM     92  CD1 PHE A  12       8.895 -10.073  -6.142  1.00  0.00    -0.004 A 
ATOM     93  CE1 PHE A  12       9.714 -11.179  -5.913  1.00  0.00    -0.000 A 
ATOM     94  CD2 PHE A  12       6.927 -11.428  -5.758  1.00  0.00    -0.004 A 
ATOM     95  CE2 PHE A  12       7.759 -12.498  -5.398  1.00  0.00    -0.000 A 
ATOM     96  CZ  PHE A  12       9.150 -12.380  -5.499  1.00  0.00    -0.000 A 
ATOM     97  N   ALA A  13       6.956  -6.023  -7.791  1.00  0.00    -0.196 N 
ATOM     98  CA  ALA A  13       6.907  -4.830  -8.640  1.00  0.00    +0.173 C 
ATOM     99  C   ALA A  13       7.396  -5.122 -10.058  1.00  0.00    +0.262 C 
ATOM    100  O   ALA A  13       7.015  -4.464 -11.012  1.00  0.00    -0.271 OA
ATOM    101  CB  ALA A  13       7.844  -3.739  -8.093  1.00  0.00    +0.033 C 
ATOM    102  N   GLY A  14       8.376  -5.989 -10.134  1.00  0.00    -0.194 N 
ATOM    103  CA  GLY A  14       9.525  -5.925 -11.018  1.00  0.00    +0.201 C 
ATOM    104  C   GLY A  14       9.391  -6.301 -12.433  1.00  0.00    +0.264 C 
ATOM    105  O   GLY A  14      10.045  -5.668 -13.251  1.00  0.00    -0.271 OA
ATOM    106  N   SER A  15       8.582  -7.303 -12.733  1.00  0.00    -0.194 N 
ATOM    107  CA  SER A  15       7.874  -7.331 -13.995  1.00  0.00    +0.205 C 
ATOM    108  C   SER A  15       6.694  -6.374 -13.919  1.00  0.00    +0.264 C 
ATOM    109  O   SER A  15       6.105  -6.162 -12.860  1.00  0.00    -0.271 OA
ATOM    110  CB  SER A  15       7.401  -8.733 -14.344  1.00  0.00    +0.213 C 
ATOM    111  OG  SER A  15       6.397  -9.166 -13.447  1.00  0.00    -0.218 OA
ATOM    112  N   SER A  16       6.392  -5.785 -15.066  1.00  0.00    -0.194 N 
ATOM    113  CA  SER A  16       6.269  -4.337 -15.167  1.00  0.00    +0.205 C 
ATOM    114  C   SER A  16       5.176  -3.730 -14.289  1.00  0.00    +0.264 C 
ATOM    115  O   SER A  16       4.201  -4.393 -13.929  1.00  0.00    -0.271 OA
ATOM    116  CB  SER A  16       6.018  -4.014 -16.636  1.00  0.00    +0.213 C 
ATOM    117  OG  SER A  16       6.160  -2.650 -16.859  1.00  0.00    -0.218 OA
ATOM    118  N   ASP A  17       5.281  -2.427 -14.025  1.00  0.00    -0.196 N 
ATOM    119  CA  ASP A  17       4.080  -1.603 -13.863  1.00  0.00    +0.184 C 
ATOM    120  C   ASP A  17       3.305  -1.456 -15.185  1.00  0.00    +0.262 C 
ATOM    121  O   ASP A  17       2.080  -1.448 -15.234  1.00  0.00    -0.271 OA
ATOM    122  CB  ASP A  17       4.490  -0.208 -13.370  1.00  0.00    +0.145 C 
ATOM    123  CG  ASP A  17       3.279   0.672 -13.052  1.00  0.00    +0.367 C 
ATOM    124  OD1 ASP A  17       2.235   0.136 -12.615  1.00  0.00    -0.246 OA
ATOM    125  OD2 ASP A  17       3.373   1.911 -13.198  1.00  0.00    -0.246 OA
ATOM    126  N   ALA A  18       4.044  -1.328 -16.267  1.00  0.00    -0.196 N 
ATOM    127  CA  ALA A  18       4.129  -0.145 -17.098  1.00  0.00    +0.173 C 
ATOM    128  C   ALA A  18       3.714  -0.438 -18.531  1.00  0.00    +0.262 C 
ATOM    129  O   ALA A  18       4.116  -1.436 -19.139  1.00  0.00    -0.271 OA
ATOM    130  CB  ALA A  18       5.567   0.409 -17.084  1.00  0.00    +0.033 C 
ATOM    131  N   ILE A  19       2.938   0.481 -19.090  1.00  0.00    -0.196 N 
ATOM    132  CA  ILE A  19       2.555   0.438 -20.494  1.00  0.00    +0.173 C 
ATOM    133  C   ILE A  19       3.402   1.434 -21.277  1.00  0.00    +0.262 C 
ATOM    134  O   ILE A  19       3.665   2.546 -20.808  1.00  0.00    -0.271 OA
ATOM    135  CB  ILE A  19       1.051   0.712 -20.655  1.00  0.00    +0.029 C 
ATOM    136  CG1 ILE A  19       0.198  -0.313 -19.892  1.00  0.00    +0.002 C 
ATOM    137  CG2 ILE A  19       0.630   0.679 -22.125  1.00  0.00    +0.002 C 
ATOM    138  CD1 ILE A  19      -1.277   0.098 -19.792  1.00  0.00    +0.000 C 
ATOM    139  N   ARG A  20       3.779   1.063 -22.502  1.00  0.00    -0.196 N 
ATOM    140  CA  ARG A  20       4.051   2.041 -23.556  1.00  0.00    +0.173 C 
ATOM    141  C   ARG A  20       2.744   2.665 -24.047  1.00  0.00    +0.262 C 
ATOM    142  O   ARG A  20       1.778   1.955 -24.312  1.00  0.00    -0.271 OA
ATOM    143  CB  ARG A  20       4.776   1.360 -24.721  1.00  0.00    +0.033 C 
ATOM    144  CG  ARG A  20       5.317   2.387 -25.722  1.00  0.00    +0.029 C 
ATOM    145  CD  ARG A  20       5.794   1.697 -26.996  1.00  0.00    +0.129 C 
ATOM    146  NE  ARG A  20       6.178   2.684 -28.020  1.00  0.00    -0.234 NA
ATOM    147  CZ  ARG A  20       5.480   3.023 -29.090  1.00  0.00    +0.284 C 
ATOM    148  NH1 ARG A  20       4.293   2.537 -29.331  1.00  0.00    -0.104 N 
ATOM    149  NH2 ARG A  20       5.981   3.859 -29.955  1.00  0.00    -0.104 N 
ATOM    150  N   ARG A  21       2.718   3.977 -24.248  1.00  0.00    -0.194 N 
ATOM    151  CA  ARG A  21       1.578   4.662 -24.883  1.00  0.00    +0.198 C 
ATOM    152  C   ARG A  21       1.797   4.876 -26.372  1.00  0.00    +0.384 C 
ATOM    153  O   ARG A  21       0.811   4.817 -27.131  1.00  0.00    -0.244 OA
ATOM    154  CB  ARG A  21       1.314   5.992 -24.192  1.00  0.00    +0.035 C 
ATOM    155  CG  ARG A  21       0.764   5.817 -22.773  1.00  0.00    +0.029 C 
ATOM    156  CD  ARG A  21       0.504   7.168 -22.110  1.00  0.00    +0.129 C 
ATOM    157  NE  ARG A  21       1.496   8.210 -22.438  1.00  0.00    -0.234 NA
ATOM    158  CZ  ARG A  21       2.613   8.433 -21.779  1.00  0.00    +0.284 C 
ATOM    159  NH1 ARG A  21       3.497   7.509 -21.528  1.00  0.00    -0.104 N 
ATOM    160  NH2 ARG A  21       2.839   9.637 -21.346  1.00  0.00    -0.104 N 
ATOM    161  OXT ARG A  21       2.943   5.135 -26.787  1.00  0.00    -0.244 OA
ATOM    162  H   MET A   1      14.665   6.085  10.597  1.00  0.00    +0.000 HD
ATOM    163  H   MET A   1      14.680   6.925  12.035  1.00  0.00    +0.000 HD
ATOM    164  H   LYS A   2      15.903   2.653  11.871  1.00  0.00    +0.000 HD
ATOM    165  H   LYS A   2      16.447   2.177   5.772  1.00  0.00    +0.000 HD
ATOM    166  H   LYS A   2      16.513   0.624   5.172  1.00  0.00    +0.000 HD
ATOM    167  H   GLN A   3      11.715   0.364  10.425  1.00  0.00    +0.000 HD
ATOM    168  H   GLN A   3       9.142   0.291   7.052  1.00  0.00    +0.000 HD
ATOM    169  H   GLN A   3       8.316   0.640   8.503  1.00  0.00    +0.000 HD
ATOM    170  H   ALA A   4      14.382   1.201   6.784  1.00  0.00    +0.000 HD
ATOM    171  H   VAL A   5      11.325  -0.591   3.956  1.00  0.00    +0.000 HD
ATOM    172  H   ASN A   6      12.974  -4.856   4.112  1.00  0.00    +0.000 HD
ATOM    173  H   ASN A   6      17.155  -5.463   4.034  1.00  0.00    +0.000 HD
ATOM    174  H   ASN A   6      15.748  -6.190   4.667  1.00  0.00    +0.000 HD
ATOM    175  H   ALA A   7      10.818  -4.816   2.372  1.00  0.00    +0.000 HD
ATOM    176  H   LEU A   8      10.249  -5.035  -0.382  1.00  0.00    +0.000 HD
ATOM    177  H   LEU A   9      11.459  -8.341  -2.649  1.00  0.00    +0.000 HD
ATOM    178  H   VAL A  10      13.567  -8.205  -6.876  1.00  0.00    +0.000 HD
ATOM    179  H   PHE A  11      11.331  -8.970  -7.667  1.00  0.00    +0.000 HD
ATOM    180  H   PHE A  12       8.869  -8.146  -7.457  1.00  0.00    +0.000 HD
ATOM    181  H   ALA A  13       7.582  -6.048  -7.031  1.00  0.00    +0.000 HD
ATOM    182  H   GLY A  14       8.328  -6.764  -9.529  1.00  0.00    +0.000 HD
ATOM    183  H   SER A  15       8.460  -8.039 -12.090  1.00  0.00    +0.000 HD
ATOM    184  H   SER A  15       6.754  -9.183 -12.545  1.00  0.00    +0.000 HD
ATOM    185  H   SER A  16       6.247  -6.338 -15.868  1.00  0.00    +0.000 HD
ATOM    186  H   SER A  16       7.062  -2.377 -16.628  1.00  0.00    +0.000 HD
ATOM    187  H   ASP A  17       6.171  -2.016 -13.938  1.00  0.00    +0.000 HD
ATOM    188  H   ASP A  17       2.192  -0.795 -12.516  1.00  0.00    +0.000 HD
ATOM    189  H   ALA A  18       4.586  -2.105 -16.535  1.00  0.00    +0.000 HD
ATOM    190  H   ILE A  19       2.608   1.222 -18.533  1.00  0.00    +0.000 HD
ATOM    191  H   ARG A  20       3.877   0.104 -22.702  1.00  0.00    +0.000 HD
ATOM    192  H   ARG A  20       3.803   2.813 -30.139  1.00  0.00    +0.000 HD
ATOM    193  H   ARG A  20       3.888   1.894 -28.705  1.00  0.00    +0.000 HD
ATOM    194  H   ARG A  20       5.462   4.112 -30.752  1.00  0.00    +0.000 HD
ATOM    195  H   ARG A  20       6.878   4.237 -29.811  1.00  0.00    +0.000 HD
ATOM    196  H   ARG A  21       3.492   4.514 -23.961  1.00  0.00    +0.000 HD
ATOM    197  H   ARG A  21       3.350   6.588 -21.845  1.00  0.00    +0.000 HD
ATOM    198  H   ARG A  21       4.311   7.732 -21.022  1.00  0.00    +0.000 HD
ATOM    199  H   ARG A  21       2.187  10.354 -21.522  1.00  0.00    +0.000 HD
ATOM    200  H   ARG A  21       3.662   9.833 -20.842  1.00  0.00    +0.000 HD
ATOM    201  H   ARG A  21       3.662   5.171 -26.187  1.00  0.00    +0.000 HD
ENDROOT
TORSDOF 0
