REMARK  Name = /var/folders/yp/yjbh3p597675h2qddgqr02y00000gn/T/tmpp0noxw3g.pdb
REMARK     285 UNITARY VALUES FOR THE UNIT CELL AUTOMATICALLY SET
REMARK     285 BY MDANALYSIS PDBWRITER BECAUSE UNIT CELL INFORMATION
REMARK     285 WAS MISSING.
REMARK     285 PROTEIN DATA BANK CONVENTIONS REQUIRE THAT
REMARK     285 CRYST1 RECORD IS INCLUDED, BUT THE VALUES ON
REMARK     285 THIS RECORD ARE MEANINGLESS.
REMARK     285 UNITARY VALUES FOR THE UNIT CELL AUTOMATICALLY SET
REMARK     285 BY MDANALYSIS PDBWRITER BECAUSE UNIT CELL INFORMATION
REMARK     285 WAS MISSING.
REMARK     285 PROTEIN DATA BANK CONVENTIONS REQUIRE THAT
REMARK     285 CRYST1 RECORD IS INCLUDED, BUT THE VALUES ON
REMARK     285 THIS RECORD ARE MEANINGLESS.
REMARK                            x       y       z     vdW  Elec       q    Type
REMARK                         _______ _______ _______ _____ _____    ______ ____
ROOT
ATOM      1  N   MET A   1      24.150   4.032  15.901  1.00  0.00    -0.123 NA
ATOM      2  CA  MET A   1      24.735   5.270  15.393  1.00  0.00    +0.170 C 
ATOM      3  C   MET A   1      25.306   5.071  13.999  1.00  0.00    +0.259 C 
ATOM      4  O   MET A   1      25.714   3.967  13.643  1.00  0.00    -0.272 OA
ATOM      5  CB  MET A   1      25.828   5.774  16.321  1.00  0.00    +0.040 C 
ATOM      6  CG  MET A   1      25.318   6.203  17.688  1.00  0.00    +0.060 C 
ATOM      7  SD  MET A   1      25.969   5.176  19.029  1.00  0.00    -0.139 S 
ATOM      8  CE  MET A   1      27.343   4.383  18.200  1.00  0.00    +0.069 C 
ATOM      9  N   LYS A   2      25.334   6.139  13.207  1.00  0.00    -0.197 N 
ATOM     10  CA  LYS A   2      25.716   6.035  11.802  1.00  0.00    +0.173 C 
ATOM     11  C   LYS A   2      27.146   5.536  11.661  1.00  0.00    +0.262 C 
ATOM     12  O   LYS A   2      28.068   6.113  12.235  1.00  0.00    -0.271 OA
ATOM     13  CB  LYS A   2      25.576   7.376  11.102  1.00  0.00    +0.031 C 
ATOM     14  CG  LYS A   2      25.991   7.352   9.640  1.00  0.00    +0.009 C 
ATOM     15  CD  LYS A   2      25.700   8.674   8.949  1.00  0.00    +0.049 C 
ATOM     16  CE  LYS A   2      24.335   9.127   9.207  1.00  0.00    +0.096 C 
ATOM     17  NZ  LYS A   2      23.730  10.117   8.557  1.00  0.00    -0.151 NA
ATOM     18  N   GLN A   3      27.331   4.464  10.896  1.00  0.00    -0.196 N 
ATOM     19  CA  GLN A   3      28.449   4.381   9.961  1.00  0.00    +0.173 C 
ATOM     20  C   GLN A   3      28.229   5.289   8.763  1.00  0.00    +0.262 C 
ATOM     21  O   GLN A   3      27.106   5.430   8.285  1.00  0.00    -0.271 OA
ATOM     22  CB  GLN A   3      28.652   2.951   9.485  1.00  0.00    +0.041 C 
ATOM     23  CG  GLN A   3      29.323   2.053  10.511  1.00  0.00    +0.091 C 
ATOM     24  CD  GLN A   3      29.218   0.578  10.159  1.00  0.00    +0.261 C 
ATOM     25  OE1 GLN A   3      28.145   0.091   9.774  1.00  0.00    -0.272 OA
ATOM     26  NE2 GLN A   3      30.329  -0.144  10.288  1.00  0.00    -0.088 N 
ATOM     27  N   ALA A   4      29.303   5.909   8.280  1.00  0.00    -0.196 N 
ATOM     28  CA  ALA A   4      29.259   6.622   7.007  1.00  0.00    +0.173 C 
ATOM     29  C   ALA A   4      28.913   5.681   5.864  1.00  0.00    +0.262 C 
ATOM     30  O   ALA A   4      29.437   4.571   5.787  1.00  0.00    -0.271 OA
ATOM     31  CB  ALA A   4      30.590   7.298   6.722  1.00  0.00    +0.033 C 
ATOM     32  N   VAL A   5      28.029   6.123   4.975  1.00  0.00    -0.196 N 
ATOM     33  CA  VAL A   5      27.715   5.359   3.771  1.00  0.00    +0.173 C 
ATOM     34  C   VAL A   5      28.786   5.594   2.719  1.00  0.00    +0.262 C 
ATOM     35  O   VAL A   5      29.338   6.690   2.624  1.00  0.00    -0.271 OA
ATOM     36  CB  VAL A   5      26.355   5.731   3.203  1.00  0.00    +0.029 C 
ATOM     37  CG1 VAL A   5      25.273   5.623   4.276  1.00  0.00    +0.002 C 
ATOM     38  CG2 VAL A   5      26.367   7.168   2.689  1.00  0.00    +0.002 C 
ATOM     39  N   ASN A   6      29.080   4.568   1.928  1.00  0.00    -0.196 N 
ATOM     40  CA  ASN A   6      29.824   4.753   0.685  1.00  0.00    +0.182 C 
ATOM     41  C   ASN A   6      28.952   5.366  -0.401  1.00  0.00    +0.262 C 
ATOM     42  O   ASN A   6      27.796   4.979  -0.566  1.00  0.00    -0.271 OA
ATOM     43  CB  ASN A   6      30.397   3.435   0.192  1.00  0.00    +0.120 C 
ATOM     44  CG  ASN A   6      31.775   3.146   0.765  1.00  0.00    +0.263 C 
ATOM     45  OD1 ASN A   6      31.900   2.610   1.866  1.00  0.00    -0.272 OA
ATOM     46  ND2 ASN A   6      32.815   3.504   0.018  1.00  0.00    -0.088 N 
ATOM     47  N   ALA A   7      29.505   6.323  -1.139  1.00  0.00    -0.196 N 
ATOM     48  CA  ALA A   7      28.765   6.978  -2.212  1.00  0.00    +0.173 C 
ATOM     49  C   ALA A   7      28.311   5.972  -3.257  1.00  0.00    +0.262 C 
ATOM     50  O   ALA A   7      29.104   5.160  -3.728  1.00  0.00    -0.271 OA
ATOM     51  CB  ALA A   7      29.612   8.052  -2.876  1.00  0.00    +0.033 C 
ATOM     52  N   LEU A   8      27.031   6.025  -3.618  1.00  0.00    -0.196 N 
ATOM     53  CA  LEU A   8      26.560   5.382  -4.841  1.00  0.00    +0.173 C 
ATOM     54  C   LEU A   8      26.894   6.224  -6.061  1.00  0.00    +0.262 C 
ATOM     55  O   LEU A   8      26.474   7.376  -6.157  1.00  0.00    -0.271 OA
ATOM     56  CB  LEU A   8      25.059   5.146  -4.782  1.00  0.00    +0.031 C 
ATOM     57  CG  LEU A   8      24.575   4.145  -3.732  1.00  0.00    +0.002 C 
ATOM     58  CD1 LEU A   8      23.250   3.526  -4.163  1.00  0.00    +0.000 C 
ATOM     59  CD2 LEU A   8      24.096   4.870  -2.480  1.00  0.00    +0.000 C 
ATOM     60  N   LEU A   9      27.650   5.651  -6.993  1.00  0.00    -0.196 N 
ATOM     61  CA  LEU A   9      27.411   5.881  -8.415  1.00  0.00    +0.173 C 
ATOM     62  C   LEU A   9      26.309   4.971  -8.933  1.00  0.00    +0.262 C 
ATOM     63  O   LEU A   9      25.535   5.358  -9.806  1.00  0.00    -0.271 OA
ATOM     64  CB  LEU A   9      28.679   5.652  -9.219  1.00  0.00    +0.031 C 
ATOM     65  CG  LEU A   9      29.608   6.859  -9.370  1.00  0.00    +0.002 C 
ATOM     66  CD1 LEU A   9      30.871   6.461 -10.125  1.00  0.00    +0.000 C 
ATOM     67  CD2 LEU A   9      30.242   7.217  -8.030  1.00  0.00    +0.000 C 
ATOM     68  N   VAL A  10      26.238   3.757  -8.394  1.00  0.00    -0.196 N 
ATOM     69  CA  VAL A  10      26.024   2.570  -9.219  1.00  0.00    +0.173 C 
ATOM     70  C   VAL A  10      24.640   2.003  -8.954  1.00  0.00    +0.262 C 
ATOM     71  O   VAL A  10      24.340   1.579  -7.839  1.00  0.00    -0.271 OA
ATOM     72  CB  VAL A  10      27.071   1.501  -8.955  1.00  0.00    +0.029 C 
ATOM     73  CG1 VAL A  10      27.257   0.614 -10.184  1.00  0.00    +0.002 C 
ATOM     74  CG2 VAL A  10      28.417   2.142  -8.628  1.00  0.00    +0.002 C 
ATOM     75  N   PHE A  11      23.792   1.994  -9.979  1.00  0.00    -0.196 N 
ATOM     76  CA  PHE A  11      23.110   0.771 -10.392  1.00  0.00    +0.177 C 
ATOM     77  C   PHE A  11      24.015  -0.082 -11.265  1.00  0.00    +0.262 C 
ATOM     78  O   PHE A  11      24.578   0.405 -12.245  1.00  0.00    -0.271 OA
ATOM     79  CB  PHE A  11      21.830   1.092 -11.146  1.00  0.00    +0.057 C 
ATOM     80  CG  PHE A  11      21.595   0.219 -12.342  1.00  0.00    -0.020 A 
ATOM     81  CD1 PHE A  11      20.966  -1.011 -12.193  1.00  0.00    -0.004 A 
ATOM     82  CE1 PHE A  11      20.749  -1.821 -13.302  1.00  0.00    -0.000 A 
ATOM     83  CD2 PHE A  11      22.007   0.640 -13.602  1.00  0.00    -0.004 A 
ATOM     84  CE2 PHE A  11      21.790  -0.169 -14.711  1.00  0.00    -0.000 A 
ATOM     85  CZ  PHE A  11      21.160  -1.399 -14.561  1.00  0.00    -0.000 A 
ATOM     86  N   PHE A  12      24.157  -1.356 -10.911  1.00  0.00    -0.196 N 
ATOM     87  CA  PHE A  12      24.999  -2.269 -11.678  1.00  0.00    +0.177 C 
ATOM     88  C   PHE A  12      24.219  -2.882 -12.830  1.00  0.00    +0.262 C 
ATOM     89  O   PHE A  12      24.620  -2.767 -13.986  1.00  0.00    -0.271 OA
ATOM     90  CB  PHE A  12      25.551  -3.373 -10.791  1.00  0.00    +0.057 C 
ATOM     91  CG  PHE A  12      26.251  -4.464 -11.544  1.00  0.00    -0.020 A 
ATOM     92  CD1 PHE A  12      25.572  -5.179 -12.524  1.00  0.00    -0.004 A 
ATOM     93  CE1 PHE A  12      26.221  -6.192 -13.222  1.00  0.00    -0.000 A 
ATOM     94  CD2 PHE A  12      27.579  -4.761 -11.262  1.00  0.00    -0.004 A 
ATOM     95  CE2 PHE A  12      28.229  -5.774 -11.959  1.00  0.00    -0.000 A 
ATOM     96  CZ  PHE A  12      27.550  -6.488 -12.940  1.00  0.00    -0.000 A 
ATOM     97  N   ALA A  13      23.106  -3.537 -12.513  1.00  0.00    -0.196 N 
ATOM     98  CA  ALA A  13      22.992  -4.979 -12.708  1.00  0.00    +0.173 C 
ATOM     99  C   ALA A  13      23.311  -5.365 -14.142  1.00  0.00    +0.262 C 
ATOM    100  O   ALA A  13      22.926  -4.664 -15.077  1.00  0.00    -0.271 OA
ATOM    101  CB  ALA A  13      21.595  -5.462 -12.351  1.00  0.00    +0.033 C 
ATOM    102  N   GLY A  14      24.014  -6.479 -14.318  1.00  0.00    -0.194 N 
ATOM    103  CA  GLY A  14      23.674  -7.435 -15.368  1.00  0.00    +0.201 C 
ATOM    104  C   GLY A  14      24.765  -8.483 -15.522  1.00  0.00    +0.264 C 
ATOM    105  O   GLY A  14      25.704  -8.528 -14.729  1.00  0.00    -0.271 OA
ATOM    106  N   SER A  15      24.643  -9.327 -16.543  1.00  0.00    -0.194 N 
ATOM    107  CA  SER A  15      25.737 -10.207 -16.938  1.00  0.00    +0.205 C 
ATOM    108  C   SER A  15      26.957  -9.410 -17.371  1.00  0.00    +0.264 C 
ATOM    109  O   SER A  15      26.841  -8.238 -17.725  1.00  0.00    -0.271 OA
ATOM    110  CB  SER A  15      25.305 -11.127 -18.067  1.00  0.00    +0.213 C 
ATOM    111  OG  SER A  15      25.358 -10.454 -19.313  1.00  0.00    -0.218 OA
ATOM    112  N   SER A  16      28.125 -10.044 -17.342  1.00  0.00    -0.194 N 
ATOM    113  CA  SER A  16      29.179  -9.741 -18.306  1.00  0.00    +0.205 C 
ATOM    114  C   SER A  16      28.690  -9.926 -19.733  1.00  0.00    +0.264 C 
ATOM    115  O   SER A  16      27.688 -10.600 -19.967  1.00  0.00    -0.271 OA
ATOM    116  CB  SER A  16      30.394 -10.622 -18.067  1.00  0.00    +0.213 C 
ATOM    117  OG  SER A  16      30.176 -11.928 -18.574  1.00  0.00    -0.218 OA
ATOM    118  N   ASP A  17      29.397  -9.328 -20.687  1.00  0.00    -0.196 N 
ATOM    119  CA  ASP A  17      28.799  -8.983 -21.973  1.00  0.00    +0.184 C 
ATOM    120  C   ASP A  17      28.930 -10.129 -22.962  1.00  0.00    +0.262 C 
ATOM    121  O   ASP A  17      28.677  -9.959 -24.154  1.00  0.00    -0.271 OA
ATOM    122  CB  ASP A  17      29.443  -7.735 -22.554  1.00  0.00    +0.145 C 
ATOM    123  CG  ASP A  17      30.961  -7.753 -22.466  1.00  0.00    +0.367 C 
ATOM    124  OD1 ASP A  17      31.535  -8.775 -22.033  1.00  0.00    -0.246 OA
ATOM    125  OD2 ASP A  17      31.586  -6.735 -22.833  1.00  0.00    -0.246 OA
ATOM    126  N   ALA A  18      29.328 -11.300 -22.470  1.00  0.00    -0.196 N 
ATOM    127  CA  ALA A  18      29.721 -12.398 -23.346  1.00  0.00    +0.173 C 
ATOM    128  C   ALA A  18      28.507 -13.029 -24.009  1.00  0.00    +0.262 C 
ATOM    129  O   ALA A  18      27.524 -13.346 -23.338  1.00  0.00    -0.271 OA
ATOM    130  CB  ALA A  18      30.484 -13.459 -22.571  1.00  0.00    +0.033 C 
ATOM    131  N   ILE A  19      28.572 -13.215 -25.324  1.00  0.00    -0.196 N 
ATOM    132  CA  ILE A  19      27.385 -13.546 -26.104  1.00  0.00    +0.178 C 
ATOM    133  C   ILE A  19      27.553 -14.917 -26.738  1.00  0.00    +0.263 C 
ATOM    134  O   ILE A  19      28.589 -15.207 -27.335  1.00  0.00    -0.271 OA
ATOM    135  CB  ILE A  19      27.111 -12.517 -27.188  1.00  0.00    +0.070 C 
ATOM    136  CG1 ILE A  19      27.591 -11.134 -26.752  1.00  0.00    +0.008 C 
ATOM    137  CG2 ILE A  19      25.617 -12.458 -27.503  1.00  0.00    +0.077 C 
ATOM    138  CD1 ILE A  19      26.862  -9.985 -27.430  1.00  0.00    +0.000 C 
ATOM    139  N   ARG A  20      26.534 -15.763 -26.610  1.00  0.00    -0.178 N 
ATOM    140  CA  ARG A  20      26.528 -17.053 -27.292  1.00  0.00    +0.225 C 
ATOM    141  C   ARG A  20      26.495 -16.872 -28.800  1.00  0.00    +0.279 C 
ATOM    142  O   ARG A  20      27.297 -17.468 -29.519  1.00  0.00    -0.270 OA
ATOM    143  CB  ARG A  20      25.336 -17.891 -26.857  1.00  0.00    +0.052 C 
ATOM    144  CG  ARG A  20      25.379 -19.326 -27.357  1.00  0.00    +0.030 C 
ATOM    145  CD  ARG A  20      25.494 -20.319 -26.210  1.00  0.00    +0.129 C 
ATOM    146  NE  ARG A  20      25.442 -21.698 -26.685  1.00  0.00    -0.234 NA
ATOM    147  CZ  ARG A  20      25.266 -22.762 -25.908  1.00  0.00    +0.284 C 
ATOM    148  NH1 ARG A  20      25.078 -22.622 -24.599  1.00  0.00    -0.104 N 
ATOM    149  NH2 ARG A  20      25.276 -23.979 -26.444  1.00  0.00    -0.104 N 
ATOM    150  N   ARG A  21      25.569 -16.047 -29.283  1.00  0.00    -0.191 N 
ATOM    151  CA  ARG A  21      24.655 -16.466 -30.341  1.00  0.00    +0.198 C 
ATOM    152  C   ARG A  21      24.986 -15.771 -31.652  1.00  0.00    +0.384 C 
ATOM    153  O   ARG A  21      24.813 -16.346 -32.725  1.00  0.00    -0.244 OA
ATOM    154  CB  ARG A  21      23.214 -16.171 -29.960  1.00  0.00    +0.035 C 
ATOM    155  CG  ARG A  21      22.660 -17.096 -28.888  1.00  0.00    +0.029 C 
ATOM    156  CD  ARG A  21      23.087 -16.663 -27.494  1.00  0.00    +0.129 C 
ATOM    157  NE  ARG A  21      23.498 -15.262 -27.467  1.00  0.00    -0.239 NA
ATOM    158  CZ  ARG A  21      24.758 -14.841 -27.504  1.00  0.00    +0.234 C 
ATOM    159  NH1 ARG A  21      25.764 -15.710 -27.527  1.00  0.00    -0.180 NA
ATOM    160  NH2 ARG A  21      25.014 -13.535 -27.518  1.00  0.00    -0.216 NA
ATOM    161  OXT ARG A  21      25.430 -14.623 -31.656  1.00  0.00    -0.244 OA
ATOM    162  H   MET A   1      23.420   3.714  15.263  1.00  0.00    +0.000 HD
ATOM    163  H   MET A   1      23.746   4.199  16.822  1.00  0.00    +0.000 HD
ATOM    164  H   LYS A   2      25.092   7.020  13.577  1.00  0.00    +0.000 HD
ATOM    165  H   LYS A   2      24.206  10.602   7.845  1.00  0.00    +0.000 HD
ATOM    166  H   GLN A   3      26.701   3.711  10.961  1.00  0.00    +0.000 HD
ATOM    167  H   GLN A   3      30.319  -1.104  10.074  1.00  0.00    +0.000 HD
ATOM    168  H   GLN A   3      31.160   0.284  10.598  1.00  0.00    +0.000 HD
ATOM    169  H   ALA A   4      30.144   5.886   8.791  1.00  0.00    +0.000 HD
ATOM    170  H   VAL A   5      27.576   6.983   5.133  1.00  0.00    +0.000 HD
ATOM    171  H   ASN A   6      28.790   3.663   2.185  1.00  0.00    +0.000 HD
ATOM    172  H   ASN A   6      32.670   3.931  -0.857  1.00  0.00    +0.000 HD
ATOM    173  H   ASN A   6      33.732   3.343   0.340  1.00  0.00    +0.000 HD
ATOM    174  H   ALA A   7      30.434   6.596  -0.957  1.00  0.00    +0.000 HD
ATOM    175  H   LEU A   8      26.390   6.509  -3.049  1.00  0.00    +0.000 HD
ATOM    176  H   LEU A   9      28.388   5.059  -6.718  1.00  0.00    +0.000 HD
ATOM    177  H   VAL A  10      26.331   3.656  -7.419  1.00  0.00    +0.000 HD
ATOM    178  H   PHE A  11      23.621   2.830 -10.470  1.00  0.00    +0.000 HD
ATOM    179  H   PHE A  12      23.685  -1.690 -10.114  1.00  0.00    +0.000 HD
ATOM    180  H   ALA A  13      22.343  -3.039 -12.140  1.00  0.00    +0.000 HD
ATOM    181  H   GLY A  14      24.780  -6.663 -13.728  1.00  0.00    +0.000 HD
ATOM    182  H   SER A  15      23.795  -9.358 -17.044  1.00  0.00    +0.000 HD
ATOM    183  H   SER A  15      26.268 -10.167 -19.486  1.00  0.00    +0.000 HD
ATOM    184  H   SER A  16      28.283 -10.732 -16.655  1.00  0.00    +0.000 HD
ATOM    185  H   SER A  16      30.016 -11.881 -19.529  1.00  0.00    +0.000 HD
ATOM    186  H   ASP A  17      30.344  -9.114 -20.523  1.00  0.00    +0.000 HD
ATOM    187  H   ASP A  17      31.031  -9.519 -21.768  1.00  0.00    +0.000 HD
ATOM    188  H   ALA A  18      29.357 -11.427 -21.495  1.00  0.00    +0.000 HD
ATOM    189  H   ILE A  19      29.440 -13.127 -25.781  1.00  0.00    +0.000 HD
ATOM    190  H   ARG A  20      25.069 -21.723 -24.196  1.00  0.00    +0.000 HD
ATOM    191  H   ARG A  20      24.948 -23.416 -24.031  1.00  0.00    +0.000 HD
ATOM    192  H   ARG A  20      25.415 -24.088 -27.413  1.00  0.00    +0.000 HD
ATOM    193  H   ARG A  20      25.145 -24.770 -25.873  1.00  0.00    +0.000 HD
ATOM    194  H   ARG A  21      25.568 -14.171 -30.847  1.00  0.00    +0.000 HD
ENDROOT
TORSDOF 0
