REMARK  Name = /var/folders/yp/yjbh3p597675h2qddgqr02y00000gn/T/tmpypuhcyqp.pdb
REMARK     285 UNITARY VALUES FOR THE UNIT CELL AUTOMATICALLY SET
REMARK     285 BY MDANALYSIS PDBWRITER BECAUSE UNIT CELL INFORMATION
REMARK     285 WAS MISSING.
REMARK     285 PROTEIN DATA BANK CONVENTIONS REQUIRE THAT
REMARK     285 CRYST1 RECORD IS INCLUDED, BUT THE VALUES ON
REMARK     285 THIS RECORD ARE MEANINGLESS.
REMARK     285 UNITARY VALUES FOR THE UNIT CELL AUTOMATICALLY SET
REMARK     285 BY MDANALYSIS PDBWRITER BECAUSE UNIT CELL INFORMATION
REMARK     285 WAS MISSING.
REMARK     285 PROTEIN DATA BANK CONVENTIONS REQUIRE THAT
REMARK     285 CRYST1 RECORD IS INCLUDED, BUT THE VALUES ON
REMARK     285 THIS RECORD ARE MEANINGLESS.
REMARK                            x       y       z     vdW  Elec       q    Type
REMARK                         _______ _______ _______ _____ _____    ______ ____
ROOT
ATOM      1  N   MET A   1      -7.670  16.015 -20.919  1.00  0.00    -0.123 NA
ATOM      2  CA  MET A   1      -7.902  14.573 -20.921  1.00  0.00    +0.170 C 
ATOM      3  C   MET A   1      -6.603  13.814 -21.132  1.00  0.00    +0.259 C 
ATOM      4  O   MET A   1      -5.709  14.286 -21.832  1.00  0.00    -0.272 OA
ATOM      5  CB  MET A   1      -8.897  14.188 -22.004  1.00  0.00    +0.040 C 
ATOM      6  CG  MET A   1      -9.352  12.739 -21.926  1.00  0.00    +0.060 C 
ATOM      7  SD  MET A   1      -9.055  11.830 -23.463  1.00  0.00    -0.139 S 
ATOM      8  CE  MET A   1     -10.700  11.214 -23.804  1.00  0.00    +0.069 C 
ATOM      9  N   LYS A   2      -6.498  12.635 -20.526  1.00  0.00    -0.197 N 
ATOM     10  CA  LYS A   2      -5.328  11.783 -20.720  1.00  0.00    +0.173 C 
ATOM     11  C   LYS A   2      -5.689  10.526 -21.496  1.00  0.00    +0.262 C 
ATOM     12  O   LYS A   2      -6.781   9.983 -21.332  1.00  0.00    -0.271 OA
ATOM     13  CB  LYS A   2      -4.713  11.395 -19.386  1.00  0.00    +0.031 C 
ATOM     14  CG  LYS A   2      -4.275  12.582 -18.542  1.00  0.00    +0.009 C 
ATOM     15  CD  LYS A   2      -3.604  12.141 -17.252  1.00  0.00    +0.049 C 
ATOM     16  CE  LYS A   2      -4.583  11.731 -16.248  1.00  0.00    +0.096 C 
ATOM     17  NZ  LYS A   2      -4.356  11.697 -14.938  1.00  0.00    -0.151 NA
ATOM     18  N   GLN A   3      -4.774  10.062 -22.341  1.00  0.00    -0.196 N 
ATOM     19  CA  GLN A   3      -4.518   8.631 -22.476  1.00  0.00    +0.173 C 
ATOM     20  C   GLN A   3      -3.311   8.212 -21.655  1.00  0.00    +0.262 C 
ATOM     21  O   GLN A   3      -2.259   8.846 -21.721  1.00  0.00    -0.271 OA
ATOM     22  CB  GLN A   3      -4.298   8.255 -23.932  1.00  0.00    +0.041 C 
ATOM     23  CG  GLN A   3      -4.691   9.347 -24.914  1.00  0.00    +0.091 C 
ATOM     24  CD  GLN A   3      -4.146   9.104 -26.313  1.00  0.00    +0.261 C 
ATOM     25  OE1 GLN A   3      -4.607   9.713 -27.289  1.00  0.00    -0.272 OA
ATOM     26  NE2 GLN A   3      -3.163   8.215 -26.421  1.00  0.00    -0.088 N 
ATOM     27  N   ALA A   4      -3.461   7.142 -20.878  1.00  0.00    -0.196 N 
ATOM     28  CA  ALA A   4      -4.763   6.779 -20.329  1.00  0.00    +0.173 C 
ATOM     29  C   ALA A   4      -5.276   7.850 -19.381  1.00  0.00    +0.262 C 
ATOM     30  O   ALA A   4      -4.502   8.661 -18.876  1.00  0.00    -0.271 OA
ATOM     31  CB  ALA A   4      -4.688   5.448 -19.598  1.00  0.00    +0.033 C 
ATOM     32  N   VAL A   5      -6.583   7.856 -19.138  1.00  0.00    -0.196 N 
ATOM     33  CA  VAL A   5      -7.125   8.421 -17.905  1.00  0.00    +0.173 C 
ATOM     34  C   VAL A   5      -6.823   7.494 -16.739  1.00  0.00    +0.262 C 
ATOM     35  O   VAL A   5      -6.863   6.273 -16.885  1.00  0.00    -0.271 OA
ATOM     36  CB  VAL A   5      -8.625   8.647 -17.996  1.00  0.00    +0.029 C 
ATOM     37  CG1 VAL A   5      -8.970   9.490 -19.223  1.00  0.00    +0.002 C 
ATOM     38  CG2 VAL A   5      -9.359   7.315 -18.117  1.00  0.00    +0.002 C 
ATOM     39  N   ASN A   6      -6.519   8.073 -15.582  1.00  0.00    -0.196 N 
ATOM     40  CA  ASN A   6      -6.281   7.285 -14.376  1.00  0.00    +0.182 C 
ATOM     41  C   ASN A   6      -7.572   6.691 -13.834  1.00  0.00    +0.262 C 
ATOM     42  O   ASN A   6      -7.545   5.719 -13.081  1.00  0.00    -0.271 OA
ATOM     43  CB  ASN A   6      -5.617   8.125 -13.298  1.00  0.00    +0.120 C 
ATOM     44  CG  ASN A   6      -4.864   7.282 -12.281  1.00  0.00    +0.263 C 
ATOM     45  OD1 ASN A   6      -5.470   6.614 -11.445  1.00  0.00    -0.272 OA
ATOM     46  ND2 ASN A   6      -3.536   7.314 -12.351  1.00  0.00    -0.088 N 
ATOM     47  N   ALA A   7      -8.703   7.277 -14.216  1.00  0.00    -0.196 N 
ATOM     48  CA  ALA A   7      -9.906   7.218 -13.392  1.00  0.00    +0.173 C 
ATOM     49  C   ALA A   7     -10.423   5.792 -13.280  1.00  0.00    +0.262 C 
ATOM     50  O   ALA A   7     -10.394   5.041 -14.252  1.00  0.00    -0.271 OA
ATOM     51  CB  ALA A   7     -10.997   8.109 -13.962  1.00  0.00    +0.033 C 
ATOM     52  N   LEU A   8     -10.894   5.421 -12.093  1.00  0.00    -0.196 N 
ATOM     53  CA  LEU A   8     -11.760   4.254 -11.951  1.00  0.00    +0.173 C 
ATOM     54  C   LEU A   8     -13.211   4.620 -12.214  1.00  0.00    +0.262 C 
ATOM     55  O   LEU A   8     -13.696   5.641 -11.727  1.00  0.00    -0.271 OA
ATOM     56  CB  LEU A   8     -11.631   3.655 -10.558  1.00  0.00    +0.031 C 
ATOM     57  CG  LEU A   8     -10.258   3.089 -10.193  1.00  0.00    +0.002 C 
ATOM     58  CD1 LEU A   8     -10.407   1.931  -9.213  1.00  0.00    +0.000 C 
ATOM     59  CD2 LEU A   8      -9.502   4.060  -9.292  1.00  0.00    +0.000 C 
ATOM     60  N   LEU A   9     -13.906   3.788 -12.984  1.00  0.00    -0.196 N 
ATOM     61  CA  LEU A   9     -15.286   3.433 -12.669  1.00  0.00    +0.173 C 
ATOM     62  C   LEU A   9     -15.354   2.595 -11.402  1.00  0.00    +0.262 C 
ATOM     63  O   LEU A   9     -14.456   1.802 -11.128  1.00  0.00    -0.271 OA
ATOM     64  CB  LEU A   9     -15.923   2.669 -13.817  1.00  0.00    +0.031 C 
ATOM     65  CG  LEU A   9     -16.875   3.467 -14.711  1.00  0.00    +0.002 C 
ATOM     66  CD1 LEU A   9     -16.110   4.101 -15.865  1.00  0.00    +0.000 C 
ATOM     67  CD2 LEU A   9     -17.331   4.740 -14.006  1.00  0.00    +0.000 C 
ATOM     68  N   VAL A  10     -16.421   2.770 -10.627  1.00  0.00    -0.196 N 
ATOM     69  CA  VAL A  10     -16.828   1.762  -9.653  1.00  0.00    +0.173 C 
ATOM     70  C   VAL A  10     -18.253   1.317  -9.937  1.00  0.00    +0.261 C 
ATOM     71  O   VAL A  10     -19.203   2.042  -9.650  1.00  0.00    -0.271 OA
ATOM     72  CB  VAL A  10     -16.733   2.280  -8.227  1.00  0.00    +0.029 C 
ATOM     73  CG1 VAL A  10     -16.679   1.121  -7.235  1.00  0.00    +0.002 C 
ATOM     74  CG2 VAL A  10     -15.467   3.115  -8.047  1.00  0.00    +0.002 C 
ATOM     75  N   PHE A  11     -18.403   0.123 -10.504  1.00  0.00    -0.197 N 
ATOM     76  CA  PHE A  11     -19.548  -0.728 -10.191  1.00  0.00    +0.182 C 
ATOM     77  C   PHE A  11     -19.304  -1.511  -8.912  1.00  0.00    +0.232 C 
ATOM     78  O   PHE A  11     -20.185  -1.607  -8.060  1.00  0.00    -0.307 OA
ATOM     79  CB  PHE A  11     -19.833  -1.693 -11.330  1.00  0.00    +0.164 C 
ATOM     80  CG  PHE A  11     -20.566  -1.073 -12.483  1.00  0.00    +0.006 A 
ATOM     81  CD1 PHE A  11     -20.083   0.093 -13.067  1.00  0.00    -0.002 A 
ATOM     82  CE1 PHE A  11     -20.763   0.669 -14.134  1.00  0.00    -0.000 A 
ATOM     83  CD2 PHE A  11     -21.727  -1.663 -12.968  1.00  0.00    -0.002 A 
ATOM     84  CE2 PHE A  11     -22.406  -1.089 -14.035  1.00  0.00    -0.000 A 
ATOM     85  CZ  PHE A  11     -21.924   0.077 -14.618  1.00  0.00    -0.000 A 
ATOM     86  N   PHE A  12     -18.105  -2.071  -8.774  1.00  0.00    -0.171 NA
ATOM     87  CA  PHE A  12     -17.801  -3.371  -9.367  1.00  0.00    +0.158 C 
ATOM     88  C   PHE A  12     -18.532  -4.483  -8.631  1.00  0.00    +0.258 C 
ATOM     89  O   PHE A  12     -17.940  -5.179  -7.807  1.00  0.00    -0.272 OA
ATOM     90  CB  PHE A  12     -16.307  -3.642  -9.344  1.00  0.00    +0.053 C 
ATOM     91  CG  PHE A  12     -15.511  -2.735 -10.235  1.00  0.00    -0.020 A 
ATOM     92  CD1 PHE A  12     -15.877  -2.570 -11.565  1.00  0.00    -0.004 A 
ATOM     93  CE1 PHE A  12     -15.138  -1.731 -12.391  1.00  0.00    -0.000 A 
ATOM     94  CD2 PHE A  12     -14.406  -2.058  -9.729  1.00  0.00    -0.004 A 
ATOM     95  CE2 PHE A  12     -13.668  -1.218 -10.554  1.00  0.00    -0.000 A 
ATOM     96  CZ  PHE A  12     -14.034  -1.054 -11.885  1.00  0.00    -0.000 A 
ATOM     97  N   ALA A  13     -19.818  -4.649  -8.927  1.00  0.00    -0.202 N 
ATOM     98  CA  ALA A  13     -20.288  -4.634 -10.308  1.00  0.00    +0.138 C 
ATOM     99  C   ALA A  13     -20.654  -3.226 -10.746  1.00  0.00    +0.201 C 
ATOM    100  O   ALA A  13     -20.798  -2.960 -11.940  1.00  0.00    -0.335 OA
ATOM    101  CB  ALA A  13     -21.490  -5.548 -10.479  1.00  0.00    +0.028 C 
ATOM    102  N   GLY A  14     -20.804  -2.321  -9.784  1.00  0.00    -0.184 NA
ATOM    103  CA  GLY A  14     -21.517  -2.637  -8.549  1.00  0.00    +0.263 C 
ATOM    104  C   GLY A  14     -23.021  -2.559  -8.755  1.00  0.00    +0.286 C 
ATOM    105  O   GLY A  14     -23.486  -2.047  -9.772  1.00  0.00    -0.269 OA
ATOM    106  N   SER A  15     -23.781  -3.068  -7.789  1.00  0.00    -0.192 N 
ATOM    107  CA  SER A  15     -25.092  -3.643  -8.077  1.00  0.00    +0.206 C 
ATOM    108  C   SER A  15     -26.102  -2.563  -8.430  1.00  0.00    +0.264 C 
ATOM    109  O   SER A  15     -25.896  -1.391  -8.119  1.00  0.00    -0.271 OA
ATOM    110  CB  SER A  15     -25.599  -4.442  -6.889  1.00  0.00    +0.213 C 
ATOM    111  OG  SER A  15     -26.064  -3.580  -5.864  1.00  0.00    -0.218 OA
ATOM    112  N   SER A  16     -27.192  -2.957  -9.084  1.00  0.00    -0.194 N 
ATOM    113  CA  SER A  16     -28.432  -2.187  -9.026  1.00  0.00    +0.205 C 
ATOM    114  C   SER A  16     -28.981  -2.133  -7.610  1.00  0.00    +0.264 C 
ATOM    115  O   SER A  16     -28.642  -2.972  -6.777  1.00  0.00    -0.271 OA
ATOM    116  CB  SER A  16     -29.476  -2.785  -9.953  1.00  0.00    +0.213 C 
ATOM    117  OG  SER A  16     -28.900  -3.136 -11.200  1.00  0.00    -0.218 OA
ATOM    118  N   ASP A  17     -29.830  -1.148  -7.337  1.00  0.00    -0.196 N 
ATOM    119  CA  ASP A  17     -30.617  -0.507  -8.387  1.00  0.00    +0.184 C 
ATOM    120  C   ASP A  17     -29.782   0.504  -9.153  1.00  0.00    +0.262 C 
ATOM    121  O   ASP A  17     -30.172   0.948 -10.232  1.00  0.00    -0.271 OA
ATOM    122  CB  ASP A  17     -31.841   0.180  -7.806  1.00  0.00    +0.145 C 
ATOM    123  CG  ASP A  17     -31.510   1.482  -7.094  1.00  0.00    +0.367 C 
ATOM    124  OD1 ASP A  17     -30.400   1.604  -6.531  1.00  0.00    -0.246 OA
ATOM    125  OD2 ASP A  17     -32.368   2.392  -7.097  1.00  0.00    -0.246 OA
ATOM    126  N   ALA A  18     -28.631   0.874  -8.597  1.00  0.00    -0.196 N 
ATOM    127  CA  ALA A  18     -28.320   2.277  -8.351  1.00  0.00    +0.173 C 
ATOM    128  C   ALA A  18     -26.947   2.636  -8.892  1.00  0.00    +0.262 C 
ATOM    129  O   ALA A  18     -26.037   1.806  -8.890  1.00  0.00    -0.271 OA
ATOM    130  CB  ALA A  18     -28.377   2.590  -6.865  1.00  0.00    +0.033 C 
ATOM    131  N   ILE A  19     -26.791   3.873  -9.356  1.00  0.00    -0.196 N 
ATOM    132  CA  ILE A  19     -26.050   4.880  -8.602  1.00  0.00    +0.173 C 
ATOM    133  C   ILE A  19     -26.978   6.023  -8.225  1.00  0.00    +0.262 C 
ATOM    134  O   ILE A  19     -27.868   6.386  -8.993  1.00  0.00    -0.271 OA
ATOM    135  CB  ILE A  19     -24.868   5.424  -9.388  1.00  0.00    +0.029 C 
ATOM    136  CG1 ILE A  19     -24.000   4.283  -9.914  1.00  0.00    +0.002 C 
ATOM    137  CG2 ILE A  19     -24.021   6.340  -8.508  1.00  0.00    +0.002 C 
ATOM    138  CD1 ILE A  19     -22.650   4.730 -10.450  1.00  0.00    +0.000 C 
ATOM    139  N   ARG A  20     -26.770   6.594  -7.042  1.00  0.00    -0.196 N 
ATOM    140  CA  ARG A  20     -26.926   8.034  -6.854  1.00  0.00    +0.173 C 
ATOM    141  C   ARG A  20     -25.700   8.783  -7.346  1.00  0.00    +0.262 C 
ATOM    142  O   ARG A  20     -24.574   8.456  -6.971  1.00  0.00    -0.271 OA
ATOM    143  CB  ARG A  20     -27.171   8.367  -5.392  1.00  0.00    +0.033 C 
ATOM    144  CG  ARG A  20     -27.383   9.850  -5.127  1.00  0.00    +0.029 C 
ATOM    145  CD  ARG A  20     -27.758  10.116  -3.678  1.00  0.00    +0.129 C 
ATOM    146  NE  ARG A  20     -28.557  11.330  -3.542  1.00  0.00    -0.234 NA
ATOM    147  CZ  ARG A  20     -28.991  11.827  -2.388  1.00  0.00    +0.284 C 
ATOM    148  NH1 ARG A  20     -28.660  11.252  -1.235  1.00  0.00    -0.104 N 
ATOM    149  NH2 ARG A  20     -29.761  12.911  -2.386  1.00  0.00    -0.104 N 
ATOM    150  N   ARG A  21     -25.913   9.791  -8.187  1.00  0.00    -0.192 N 
ATOM    151  CA  ARG A  21     -26.703   9.612  -9.402  1.00  0.00    +0.220 C 
ATOM    152  C   ARG A  21     -25.816   9.645 -10.638  1.00  0.00    +0.386 C 
ATOM    153  O   ARG A  21     -26.028   8.880 -11.578  1.00  0.00    -0.244 OA
ATOM    154  CB  ARG A  21     -27.772  10.688  -9.517  1.00  0.00    +0.139 C 
ATOM    155  CG  ARG A  21     -28.489  10.982  -8.210  1.00  0.00    +0.050 C 
ATOM    156  CD  ARG A  21     -28.176  12.377  -7.695  1.00  0.00    +0.117 C 
ATOM    157  NE  ARG A  21     -28.274  13.377  -8.755  1.00  0.00    -0.205 N 
ATOM    158  CZ  ARG A  21     -27.814  13.218  -9.993  1.00  0.00    +0.237 C 
ATOM    159  NH1 ARG A  21     -27.653  14.265 -10.798  1.00  0.00    -0.089 N 
ATOM    160  NH2 ARG A  21     -27.512  11.999 -10.430  1.00  0.00    -0.239 NA
ATOM    161  OXT ARG A  21     -24.879  10.436 -10.712  1.00  0.00    -0.244 OA
ATOM    162  H   MET A   1      -7.000  16.251 -20.186  1.00  0.00    +0.000 HD
ATOM    163  H   MET A   1      -8.550  16.501 -20.744  1.00  0.00    +0.000 HD
ATOM    164  H   LYS A   2      -7.224  12.330 -19.936  1.00  0.00    +0.000 HD
ATOM    165  H   LYS A   2      -3.476  11.960 -14.585  1.00  0.00    +0.000 HD
ATOM    166  H   GLN A   3      -4.257  10.697 -22.887  1.00  0.00    +0.000 HD
ATOM    167  H   GLN A   3      -2.772   8.018 -27.303  1.00  0.00    +0.000 HD
ATOM    168  H   GLN A   3      -2.826   7.755 -25.618  1.00  0.00    +0.000 HD
ATOM    169  H   ALA A   4      -2.677   6.584 -20.669  1.00  0.00    +0.000 HD
ATOM    170  H   VAL A   5      -7.199   7.470 -19.803  1.00  0.00    +0.000 HD
ATOM    171  H   ASN A   6      -6.452   9.054 -15.536  1.00  0.00    +0.000 HD
ATOM    172  H   ASN A   6      -2.997   6.788 -11.718  1.00  0.00    +0.000 HD
ATOM    173  H   ASN A   6      -3.093   7.864 -13.037  1.00  0.00    +0.000 HD
ATOM    174  H   ALA A   7      -8.729   7.762 -15.073  1.00  0.00    +0.000 HD
ATOM    175  H   LEU A   8     -10.653   5.944 -11.294  1.00  0.00    +0.000 HD
ATOM    176  H   LEU A   9     -13.481   3.403 -13.784  1.00  0.00    +0.000 HD
ATOM    177  H   VAL A  10     -16.948   3.598 -10.713  1.00  0.00    +0.000 HD
ATOM    178  H   PHE A  11     -17.727  -0.194 -11.146  1.00  0.00    +0.000 HD
ATOM    179  H   PHE A  12     -17.433  -1.412  -9.165  1.00  0.00    +0.000 HD
ATOM    180  H   ALA A  13     -20.467  -4.785  -8.199  1.00  0.00    +0.000 HD
ATOM    181  H   SER A  15     -23.453  -3.056  -6.861  1.00  0.00    +0.000 HD
ATOM    182  H   SER A  15     -25.336  -3.015  -5.561  1.00  0.00    +0.000 HD
ATOM    183  H   SER A  16     -27.162  -3.784  -9.618  1.00  0.00    +0.000 HD
ATOM    184  H   SER A  16     -28.203  -3.796 -11.060  1.00  0.00    +0.000 HD
ATOM    185  H   ASP A  17     -29.930  -0.842  -6.407  1.00  0.00    +0.000 HD
ATOM    186  H   ASP A  17     -33.188   2.260  -7.530  1.00  0.00    +0.000 HD
ATOM    187  H   ALA A  18     -27.974   0.184  -8.346  1.00  0.00    +0.000 HD
ATOM    188  H   ILE A  19     -27.183   4.115 -10.226  1.00  0.00    +0.000 HD
ATOM    189  H   ARG A  20     -26.506   6.034  -6.276  1.00  0.00    +0.000 HD
ATOM    190  H   ARG A  20     -28.089  10.450  -1.230  1.00  0.00    +0.000 HD
ATOM    191  H   ARG A  20     -28.985  11.630  -0.386  1.00  0.00    +0.000 HD
ATOM    192  H   ARG A  20     -30.009  13.340  -3.237  1.00  0.00    +0.000 HD
ATOM    193  H   ARG A  20     -30.083  13.284  -1.535  1.00  0.00    +0.000 HD
ATOM    194  H   ARG A  21     -25.530  10.675  -7.987  1.00  0.00    +0.000 HD
ATOM    195  H   ARG A  21     -26.740   8.273 -11.536  1.00  0.00    +0.000 HD
ATOM    196  H   ARG A  21     -28.714  14.231  -8.538  1.00  0.00    +0.000 HD
ATOM    197  H   ARG A  21     -27.311  14.135 -11.712  1.00  0.00    +0.000 HD
ATOM    198  H   ARG A  21     -27.876  15.169 -10.479  1.00  0.00    +0.000 HD
ENDROOT
TORSDOF 0
