REMARK  Name = /var/folders/yp/yjbh3p597675h2qddgqr02y00000gn/T/tmp51qw35w1.pdb
REMARK     285 UNITARY VALUES FOR THE UNIT CELL AUTOMATICALLY SET
REMARK     285 BY MDANALYSIS PDBWRITER BECAUSE UNIT CELL INFORMATION
REMARK     285 WAS MISSING.
REMARK     285 PROTEIN DATA BANK CONVENTIONS REQUIRE THAT
REMARK     285 CRYST1 RECORD IS INCLUDED, BUT THE VALUES ON
REMARK     285 THIS RECORD ARE MEANINGLESS.
REMARK     285 UNITARY VALUES FOR THE UNIT CELL AUTOMATICALLY SET
REMARK     285 BY MDANALYSIS PDBWRITER BECAUSE UNIT CELL INFORMATION
REMARK     285 WAS MISSING.
REMARK     285 PROTEIN DATA BANK CONVENTIONS REQUIRE THAT
REMARK     285 CRYST1 RECORD IS INCLUDED, BUT THE VALUES ON
REMARK     285 THIS RECORD ARE MEANINGLESS.
REMARK                            x       y       z     vdW  Elec       q    Type
REMARK                         _______ _______ _______ _____ _____    ______ ____
ROOT
ATOM      1  N   MET A   1      -8.780 -13.378  11.620  1.00  0.00    -0.123 NA
ATOM      2  CA  MET A   1      -8.990 -14.822  11.686  1.00  0.00    +0.170 C 
ATOM      3  C   MET A   1      -8.257 -15.424  12.873  1.00  0.00    +0.259 C 
ATOM      4  O   MET A   1      -7.386 -14.783  13.460  1.00  0.00    -0.272 OA
ATOM      5  CB  MET A   1      -8.524 -15.495  10.406  1.00  0.00    +0.040 C 
ATOM      6  CG  MET A   1      -9.011 -16.928  10.258  1.00  0.00    +0.060 C 
ATOM      7  SD  MET A   1      -8.760 -17.583   8.589  1.00  0.00    -0.139 S 
ATOM      8  CE  MET A   1      -7.280 -16.698   8.109  1.00  0.00    +0.069 C 
ATOM      9  N   LYS A   2      -8.607 -16.657  13.227  1.00  0.00    -0.197 N 
ATOM     10  CA  LYS A   2      -8.206 -17.221  14.512  1.00  0.00    +0.173 C 
ATOM     11  C   LYS A   2      -6.715 -17.510  14.542  1.00  0.00    +0.262 C 
ATOM     12  O   LYS A   2      -6.155 -17.999  13.561  1.00  0.00    -0.271 OA
ATOM     13  CB  LYS A   2      -8.977 -18.497  14.807  1.00  0.00    +0.031 C 
ATOM     14  CG  LYS A   2      -8.661 -19.109  16.163  1.00  0.00    +0.009 C 
ATOM     15  CD  LYS A   2      -9.853 -19.043  17.103  1.00  0.00    +0.049 C 
ATOM     16  CE  LYS A   2     -10.864 -20.040  16.762  1.00  0.00    +0.096 C 
ATOM     17  NZ  LYS A   2     -11.212 -21.063  17.538  1.00  0.00    -0.151 NA
ATOM     18  N   GLN A   3      -6.071 -17.211  15.665  1.00  0.00    -0.196 N 
ATOM     19  CA  GLN A   3      -4.941 -18.011  16.131  1.00  0.00    +0.173 C 
ATOM     20  C   GLN A   3      -5.225 -18.619  17.494  1.00  0.00    +0.261 C 
ATOM     21  O   GLN A   3      -5.542 -17.904  18.443  1.00  0.00    -0.271 OA
ATOM     22  CB  GLN A   3      -3.676 -17.171  16.203  1.00  0.00    +0.038 C 
ATOM     23  CG  GLN A   3      -2.453 -17.946  16.666  1.00  0.00    +0.081 C 
ATOM     24  CD  GLN A   3      -2.138 -19.137  15.776  1.00  0.00    +0.300 C 
ATOM     25  OE1 GLN A   3      -0.979 -19.359  15.398  1.00  0.00    -0.174 OA
ATOM     26  NE2 GLN A   3      -3.165 -19.912  15.437  1.00  0.00    -0.073 NA
ATOM     27  N   ALA A   4      -5.112 -19.940  17.593  1.00  0.00    -0.202 N 
ATOM     28  CA  ALA A   4      -4.296 -20.558  18.635  1.00  0.00    +0.140 C 
ATOM     29  C   ALA A   4      -2.831 -20.196  18.468  1.00  0.00    +0.213 C 
ATOM     30  O   ALA A   4      -2.383 -19.894  17.362  1.00  0.00    -0.302 OA
ATOM     31  CB  ALA A   4      -4.452 -22.070  18.616  1.00  0.00    +0.028 C 
ATOM     32  N   VAL A   5      -2.079 -20.227  19.564  1.00  0.00    -0.182 NA
ATOM     33  CA  VAL A   5      -0.653 -20.536  19.501  1.00  0.00    +0.153 C 
ATOM     34  C   VAL A   5      -0.353 -21.751  20.363  1.00  0.00    +0.258 C 
ATOM     35  O   VAL A   5      -0.563 -21.725  21.575  1.00  0.00    -0.272 OA
ATOM     36  CB  VAL A   5       0.203 -19.366  19.958  1.00  0.00    +0.025 C 
ATOM     37  CG1 VAL A   5       0.771 -19.625  21.352  1.00  0.00    +0.002 C 
ATOM     38  CG2 VAL A   5       1.376 -19.159  19.002  1.00  0.00    +0.002 C 
ATOM     39  N   ASN A   6       0.140 -22.819  19.740  1.00  0.00    -0.196 N 
ATOM     40  CA  ASN A   6       1.063 -23.731  20.408  1.00  0.00    +0.182 C 
ATOM     41  C   ASN A   6       2.510 -23.391  20.090  1.00  0.00    +0.262 C 
ATOM     42  O   ASN A   6       3.398 -23.608  20.912  1.00  0.00    -0.271 OA
ATOM     43  CB  ASN A   6       0.783 -25.172  20.016  1.00  0.00    +0.120 C 
ATOM     44  CG  ASN A   6       1.059 -26.149  21.148  1.00  0.00    +0.263 C 
ATOM     45  OD1 ASN A   6       2.004 -26.933  21.087  1.00  0.00    -0.272 OA
ATOM     46  ND2 ASN A   6       0.229 -26.104  22.187  1.00  0.00    -0.088 N 
ATOM     47  N   ALA A   7       2.748 -22.857  18.895  1.00  0.00    -0.196 N 
ATOM     48  CA  ALA A   7       4.110 -22.677  18.399  1.00  0.00    +0.173 C 
ATOM     49  C   ALA A   7       4.910 -21.766  19.314  1.00  0.00    +0.262 C 
ATOM     50  O   ALA A   7       6.139 -21.803  19.312  1.00  0.00    -0.271 OA
ATOM     51  CB  ALA A   7       4.101 -22.103  16.991  1.00  0.00    +0.033 C 
ATOM     52  N   LEU A   8       4.213 -20.947  20.098  1.00  0.00    -0.196 N 
ATOM     53  CA  LEU A   8       4.785 -19.698  20.592  1.00  0.00    +0.173 C 
ATOM     54  C   LEU A   8       5.202 -19.833  22.048  1.00  0.00    +0.262 C 
ATOM     55  O   LEU A   8       5.236 -20.938  22.587  1.00  0.00    -0.271 OA
ATOM     56  CB  LEU A   8       3.791 -18.557  20.452  1.00  0.00    +0.031 C 
ATOM     57  CG  LEU A   8       3.374 -18.200  19.024  1.00  0.00    +0.002 C 
ATOM     58  CD1 LEU A   8       2.514 -16.941  19.025  1.00  0.00    +0.000 C 
ATOM     59  CD2 LEU A   8       2.336 -19.190  18.505  1.00  0.00    +0.000 C 
ATOM     60  N   LEU A   9       5.517 -18.708  22.684  1.00  0.00    -0.196 N 
ATOM     61  CA  LEU A   9       6.257 -18.729  23.943  1.00  0.00    +0.173 C 
ATOM     62  C   LEU A   9       5.392 -19.269  25.070  1.00  0.00    +0.262 C 
ATOM     63  O   LEU A   9       4.666 -18.516  25.719  1.00  0.00    -0.271 OA
ATOM     64  CB  LEU A   9       6.746 -17.336  24.303  1.00  0.00    +0.031 C 
ATOM     65  CG  LEU A   9       8.179 -16.998  23.885  1.00  0.00    +0.002 C 
ATOM     66  CD1 LEU A   9       8.496 -17.622  22.532  1.00  0.00    +0.000 C 
ATOM     67  CD2 LEU A   9       9.182 -17.769  24.738  1.00  0.00    +0.000 C 
ATOM     68  N   VAL A  10       5.467 -20.575  25.306  1.00  0.00    -0.196 N 
ATOM     69  CA  VAL A  10       5.537 -21.100  26.668  1.00  0.00    +0.173 C 
ATOM     70  C   VAL A  10       6.989 -21.232  27.094  1.00  0.00    +0.262 C 
ATOM     71  O   VAL A  10       7.781 -21.891  26.423  1.00  0.00    -0.271 OA
ATOM     72  CB  VAL A  10       4.847 -22.449  26.791  1.00  0.00    +0.029 C 
ATOM     73  CG1 VAL A  10       4.419 -22.706  28.234  1.00  0.00    +0.002 C 
ATOM     74  CG2 VAL A  10       3.599 -22.492  25.914  1.00  0.00    +0.002 C 
ATOM     75  N   PHE A  11       7.342 -20.601  28.211  1.00  0.00    -0.196 N 
ATOM     76  CA  PHE A  11       8.153 -21.260  29.231  1.00  0.00    +0.177 C 
ATOM     77  C   PHE A  11       7.289 -22.141  30.119  1.00  0.00    +0.262 C 
ATOM     78  O   PHE A  11       7.643 -23.287  30.396  1.00  0.00    -0.271 OA
ATOM     79  CB  PHE A  11       8.882 -20.238  30.088  1.00  0.00    +0.057 C 
ATOM     80  CG  PHE A  11       9.572 -20.829  31.281  1.00  0.00    -0.020 A 
ATOM     81  CD1 PHE A  11      10.822 -21.423  31.139  1.00  0.00    -0.004 A 
ATOM     82  CE1 PHE A  11      11.460 -21.970  32.245  1.00  0.00    -0.000 A 
ATOM     83  CD2 PHE A  11       8.962 -20.783  32.530  1.00  0.00    -0.004 A 
ATOM     84  CE2 PHE A  11       9.601 -21.332  33.636  1.00  0.00    -0.000 A 
ATOM     85  CZ  PHE A  11      10.850 -21.924  33.494  1.00  0.00    -0.000 A 
ATOM     86  N   PHE A  12       6.155 -21.610  30.566  1.00  0.00    -0.196 N 
ATOM     87  CA  PHE A  12       5.420 -22.209  31.676  1.00  0.00    +0.177 C 
ATOM     88  C   PHE A  12       4.690 -23.464  31.225  1.00  0.00    +0.262 C 
ATOM     89  O   PHE A  12       4.782 -24.506  31.872  1.00  0.00    -0.271 OA
ATOM     90  CB  PHE A  12       4.419 -21.224  32.259  1.00  0.00    +0.058 C 
ATOM     91  CG  PHE A  12       3.269 -21.876  32.968  1.00  0.00    -0.017 A 
ATOM     92  CD1 PHE A  12       2.036 -21.988  32.338  1.00  0.00    +0.033 A 
ATOM     93  CE1 PHE A  12       0.971 -22.592  32.996  1.00  0.00    +0.140 A 
ATOM     94  CD2 PHE A  12       3.439 -22.370  34.257  1.00  0.00    -0.004 A 
ATOM     95  CE2 PHE A  12       2.374 -22.975  34.915  1.00  0.00    +0.003 A 
ATOM     96  CZ  PHE A  12       1.140 -23.086  34.284  1.00  0.00    +0.037 A 
ATOM     97  N   ALA A  13       3.965 -23.367  30.114  1.00  0.00    -0.200 N 
ATOM     98  CA  ALA A  13       2.604 -22.839  30.140  1.00  0.00    +0.153 C 
ATOM     99  C   ALA A  13       1.645 -23.830  30.778  1.00  0.00    +0.261 C 
ATOM    100  O   ALA A  13       1.646 -24.005  31.996  1.00  0.00    -0.460 OA
ATOM    101  CB  ALA A  13       2.128 -22.504  28.735  1.00  0.00    +0.029 C 
ATOM    102  N   GLY A  14       0.825 -24.480  29.957  1.00  0.00    -0.169 NA
ATOM    103  CA  GLY A  14      -0.479 -24.962  30.408  1.00  0.00    +0.179 C 
ATOM    104  C   GLY A  14      -0.356 -26.329  31.061  1.00  0.00    +0.259 C 
ATOM    105  O   GLY A  14       0.736 -26.733  31.462  1.00  0.00    -0.272 OA
ATOM    106  N   SER A  15      -1.474 -27.041  31.167  1.00  0.00    -0.202 N 
ATOM    107  CA  SER A  15      -1.485 -28.342  31.828  1.00  0.00    +0.146 C 
ATOM    108  C   SER A  15      -1.008 -29.441  30.893  1.00  0.00    +0.114 C 
ATOM    109  O   SER A  15      -1.012 -29.268  29.674  1.00  0.00    -0.327 OA
ATOM    110  CB  SER A  15      -2.879 -28.675  32.333  1.00  0.00    +0.205 C 
ATOM    111  OG  SER A  15      -3.734 -29.024  31.259  1.00  0.00    -0.217 OA
ATOM    112  N   SER A  16      -0.598 -30.572  31.459  1.00  0.00    -0.206 NA
ATOM    113  CA  SER A  16       0.819 -30.914  31.534  1.00  0.00    +0.184 C 
ATOM    114  C   SER A  16       1.455 -30.935  30.153  1.00  0.00    +0.260 C 
ATOM    115  O   SER A  16       2.643 -30.652  30.009  1.00  0.00    -0.272 OA
ATOM    116  CB  SER A  16       1.011 -32.266  32.200  1.00  0.00    +0.209 C 
ATOM    117  OG  SER A  16       1.368 -32.109  33.562  1.00  0.00    -0.218 OA
ATOM    118  N   ASP A  17       0.663 -31.268  29.137  1.00  0.00    -0.196 N 
ATOM    119  CA  ASP A  17       1.175 -31.355  27.772  1.00  0.00    +0.184 C 
ATOM    120  C   ASP A  17       1.041 -30.021  27.054  1.00  0.00    +0.264 C 
ATOM    121  O   ASP A  17       1.344 -29.920  25.866  1.00  0.00    -0.271 OA
ATOM    122  CB  ASP A  17       0.444 -32.430  26.986  1.00  0.00    +0.145 C 
ATOM    123  CG  ASP A  17       0.588 -33.815  27.594  1.00  0.00    +0.367 C 
ATOM    124  OD1 ASP A  17       1.565 -34.055  28.338  1.00  0.00    -0.246 OA
ATOM    125  OD2 ASP A  17      -0.281 -34.673  27.327  1.00  0.00    -0.246 OA
ATOM    126  N   ALA A  18       0.584 -28.999  27.771  1.00  0.00    -0.168 N 
ATOM    127  CA  ALA A  18      -0.642 -29.109  28.557  1.00  0.00    +0.292 C 
ATOM    128  C   ALA A  18      -1.823 -28.513  27.812  1.00  0.00    +0.290 C 
ATOM    129  O   ALA A  18      -1.675 -27.526  27.093  1.00  0.00    -0.269 OA
ATOM    130  CB  ALA A  18      -0.485 -28.415  29.901  1.00  0.00    +0.177 C 
ATOM    131  N   ILE A  19      -3.000 -29.108  27.983  1.00  0.00    -0.199 N 
ATOM    132  CA  ILE A  19      -4.223 -28.336  28.178  1.00  0.00    +0.143 C 
ATOM    133  C   ILE A  19      -4.685 -28.464  29.620  1.00  0.00    +0.246 C 
ATOM    134  O   ILE A  19      -4.575 -29.532  30.221  1.00  0.00    -0.203 OA
ATOM    135  CB  ILE A  19      -5.335 -28.789  27.246  1.00  0.00    +0.024 C 
ATOM    136  CG1 ILE A  19      -4.791 -29.052  25.843  1.00  0.00    +0.002 C 
ATOM    137  CG2 ILE A  19      -6.434 -27.733  27.174  1.00  0.00    +0.002 C 
ATOM    138  CD1 ILE A  19      -5.862 -29.383  24.817  1.00  0.00    +0.000 C 
ATOM    139  N   ARG A  20      -5.204 -27.374  30.178  1.00  0.00    -0.180 NA
ATOM    140  CA  ARG A  20      -6.585 -27.347  30.653  1.00  0.00    +0.153 C 
ATOM    141  C   ARG A  20      -7.551 -27.094  29.507  1.00  0.00    +0.258 C 
ATOM    142  O   ARG A  20      -7.184 -26.483  28.504  1.00  0.00    -0.272 OA
ATOM    143  CB  ARG A  20      -6.772 -26.278  31.717  1.00  0.00    +0.029 C 
ATOM    144  CG  ARG A  20      -7.934 -25.337  31.447  1.00  0.00    +0.028 C 
ATOM    145  CD  ARG A  20      -8.145 -24.357  32.589  1.00  0.00    +0.129 C 
ATOM    146  NE  ARG A  20      -6.993 -23.479  32.766  1.00  0.00    -0.234 NA
ATOM    147  CZ  ARG A  20      -6.721 -22.799  33.877  1.00  0.00    +0.284 C 
ATOM    148  NH1 ARG A  20      -7.551 -22.837  34.914  1.00  0.00    -0.104 N 
ATOM    149  NH2 ARG A  20      -5.607 -22.075  33.949  1.00  0.00    -0.104 N 
ATOM    150  N   ARG A  21      -8.786 -27.563  29.653  1.00  0.00    -0.194 N 
ATOM    151  CA  ARG A  21      -9.331 -27.871  30.973  1.00  0.00    +0.198 C 
ATOM    152  C   ARG A  21      -9.562 -29.363  31.131  1.00  0.00    +0.384 C 
ATOM    153  O   ARG A  21      -8.898 -30.017  31.934  1.00  0.00    -0.244 OA
ATOM    154  CB  ARG A  21     -10.636 -27.127  31.207  1.00  0.00    +0.035 C 
ATOM    155  CG  ARG A  21     -11.324 -26.674  29.930  1.00  0.00    +0.029 C 
ATOM    156  CD  ARG A  21     -12.580 -25.869  30.219  1.00  0.00    +0.129 C 
ATOM    157  NE  ARG A  21     -13.775 -26.707  30.200  1.00  0.00    -0.234 NA
ATOM    158  CZ  ARG A  21     -15.021 -26.250  30.122  1.00  0.00    +0.284 C 
ATOM    159  NH1 ARG A  21     -15.273 -24.948  30.222  1.00  0.00    -0.104 N 
ATOM    160  NH2 ARG A  21     -16.025 -27.104  29.940  1.00  0.00    -0.104 N 
ATOM    161  OXT ARG A  21     -10.417 -29.939  30.460  1.00  0.00    -0.244 OA
ATOM    162  H   MET A   1      -9.281 -12.998  10.817  1.00  0.00    +0.000 HD
ATOM    163  H   MET A   1      -7.783 -13.183  11.522  1.00  0.00    +0.000 HD
ATOM    164  H   LYS A   2      -9.147 -17.201  12.609  1.00  0.00    +0.000 HD
ATOM    165  H   LYS A   2     -10.776 -21.188  18.412  1.00  0.00    +0.000 HD
ATOM    166  H   GLN A   3      -6.362 -16.434  16.195  1.00  0.00    +0.000 HD
ATOM    167  H   GLN A   3      -0.838 -18.948  14.530  1.00  0.00    +0.000 HD
ATOM    168  H   GLN A   3      -3.388 -19.768  14.452  1.00  0.00    +0.000 HD
ATOM    169  H   GLN A   3      -3.975 -19.672  16.008  1.00  0.00    +0.000 HD
ATOM    170  H   ALA A   4      -5.588 -20.514  16.951  1.00  0.00    +0.000 HD
ATOM    171  H   VAL A   5      -2.498 -20.922  20.181  1.00  0.00    +0.000 HD
ATOM    172  H   ASN A   6      -0.124 -22.997  18.809  1.00  0.00    +0.000 HD
ATOM    173  H   ASN A   6      -0.516 -25.459  22.194  1.00  0.00    +0.000 HD
ATOM    174  H   ASN A   6       0.359 -26.714  22.948  1.00  0.00    +0.000 HD
ATOM    175  H   ALA A   7       1.990 -22.576  18.333  1.00  0.00    +0.000 HD
ATOM    176  H   LEU A   8       3.292 -21.188  20.349  1.00  0.00    +0.000 HD
ATOM    177  H   LEU A   9       5.245 -17.844  22.299  1.00  0.00    +0.000 HD
ATOM    178  H   VAL A  10       5.476 -21.202  24.548  1.00  0.00    +0.000 HD
ATOM    179  H   PHE A  11       7.050 -19.672  28.354  1.00  0.00    +0.000 HD
ATOM    180  H   PHE A  12       5.803 -20.796  30.139  1.00  0.00    +0.000 HD
ATOM    181  H   ALA A  13       4.354 -23.657  29.257  1.00  0.00    +0.000 HD
ATOM    182  H   GLY A  14       0.645 -23.853  29.173  1.00  0.00    +0.000 HD
ATOM    183  H   SER A  15      -2.311 -26.684  30.791  1.00  0.00    +0.000 HD
ATOM    184  H   SER A  16      -1.051 -31.331  30.950  1.00  0.00    +0.000 HD
ATOM    185  H   SER A  16       2.203 -31.617  33.622  1.00  0.00    +0.000 HD
ATOM    186  H   ASP A  17      -0.287 -31.459  29.309  1.00  0.00    +0.000 HD
ATOM    187  H   ASP A  17       2.196 -33.384  28.514  1.00  0.00    +0.000 HD
ATOM    188  H   ALA A  18       1.084 -28.151  27.773  1.00  0.00    +0.000 HD
ATOM    189  H   ILE A  19      -3.048 -30.091  27.977  1.00  0.00    +0.000 HD
ATOM    190  H   ARG A  20      -5.123 -26.629  29.485  1.00  0.00    +0.000 HD
ATOM    191  H   ARG A  20      -8.377 -23.371  34.865  1.00  0.00    +0.000 HD
ATOM    192  H   ARG A  20      -7.340 -22.330  35.732  1.00  0.00    +0.000 HD
ATOM    193  H   ARG A  20      -4.990 -22.045  33.183  1.00  0.00    +0.000 HD
ATOM    194  H   ARG A  20      -5.400 -21.570  34.767  1.00  0.00    +0.000 HD
ATOM    195  H   ARG A  21      -9.346 -27.706  28.856  1.00  0.00    +0.000 HD
ATOM    196  H   ARG A  21      -8.243 -29.594  32.453  1.00  0.00    +0.000 HD
ATOM    197  H   ARG A  21     -16.200 -24.620  30.163  1.00  0.00    +0.000 HD
ATOM    198  H   ARG A  21     -14.533 -24.312  30.357  1.00  0.00    +0.000 HD
ATOM    199  H   ARG A  21     -16.949 -26.771  29.881  1.00  0.00    +0.000 HD
ATOM    200  H   ARG A  21     -15.843 -28.068  29.864  1.00  0.00    +0.000 HD
ENDROOT
TORSDOF 0
