REMARK  Name = /var/folders/yp/yjbh3p597675h2qddgqr02y00000gn/T/tmpcjfpdf2i.pdb
REMARK     285 UNITARY VALUES FOR THE UNIT CELL AUTOMATICALLY SET
REMARK     285 BY MDANALYSIS PDBWRITER BECAUSE UNIT CELL INFORMATION
REMARK     285 WAS MISSING.
REMARK     285 PROTEIN DATA BANK CONVENTIONS REQUIRE THAT
REMARK     285 CRYST1 RECORD IS INCLUDED, BUT THE VALUES ON
REMARK     285 THIS RECORD ARE MEANINGLESS.
REMARK     285 UNITARY VALUES FOR THE UNIT CELL AUTOMATICALLY SET
REMARK     285 BY MDANALYSIS PDBWRITER BECAUSE UNIT CELL INFORMATION
REMARK     285 WAS MISSING.
REMARK     285 PROTEIN DATA BANK CONVENTIONS REQUIRE THAT
REMARK     285 CRYST1 RECORD IS INCLUDED, BUT THE VALUES ON
REMARK     285 THIS RECORD ARE MEANINGLESS.
REMARK                            x       y       z     vdW  Elec       q    Type
REMARK                         _______ _______ _______ _____ _____    ______ ____
ROOT
ATOM      1  N   MET A   1      -3.136  14.506 -19.044  1.00  0.00    -0.123 NA
ATOM      2  CA  MET A   1      -3.608  14.590 -17.665  1.00  0.00    +0.170 C 
ATOM      3  C   MET A   1      -5.010  15.172 -17.605  1.00  0.00    +0.259 C 
ATOM      4  O   MET A   1      -5.451  15.838 -18.539  1.00  0.00    -0.272 OA
ATOM      5  CB  MET A   1      -2.670  15.439 -16.822  1.00  0.00    +0.040 C 
ATOM      6  CG  MET A   1      -1.253  14.894 -16.748  1.00  0.00    +0.060 C 
ATOM      7  SD  MET A   1      -0.133  15.979 -15.829  1.00  0.00    -0.139 S 
ATOM      8  CE  MET A   1       1.448  15.439 -16.468  1.00  0.00    +0.069 C 
ATOM      9  N   LYS A   2      -5.713  14.920 -16.505  1.00  0.00    -0.197 N 
ATOM     10  CA  LYS A   2      -7.067  15.439 -16.332  1.00  0.00    +0.173 C 
ATOM     11  C   LYS A   2      -7.044  16.920 -15.987  1.00  0.00    +0.262 C 
ATOM     12  O   LYS A   2      -6.301  17.343 -15.103  1.00  0.00    -0.271 OA
ATOM     13  CB  LYS A   2      -7.805  14.677 -15.244  1.00  0.00    +0.031 C 
ATOM     14  CG  LYS A   2      -9.274  15.047 -15.121  1.00  0.00    +0.009 C 
ATOM     15  CD  LYS A   2      -9.922  14.393 -13.914  1.00  0.00    +0.049 C 
ATOM     16  CE  LYS A   2     -10.021  12.944 -14.072  1.00  0.00    +0.096 C 
ATOM     17  NZ  LYS A   2     -10.874  12.166 -13.414  1.00  0.00    -0.151 NA
ATOM     18  N   GLN A   3      -7.857  17.707 -16.684  1.00  0.00    -0.196 N 
ATOM     19  CA  GLN A   3      -8.664  18.736 -16.032  1.00  0.00    +0.173 C 
ATOM     20  C   GLN A   3      -9.722  18.114 -15.136  1.00  0.00    +0.262 C 
ATOM     21  O   GLN A   3     -10.593  17.386 -15.610  1.00  0.00    -0.271 OA
ATOM     22  CB  GLN A   3      -9.334  19.632 -17.060  1.00  0.00    +0.041 C 
ATOM     23  CG  GLN A   3     -10.214  20.711 -16.451  1.00  0.00    +0.093 C 
ATOM     24  CD  GLN A   3      -9.444  21.660 -15.549  1.00  0.00    +0.280 C 
ATOM     25  OE1 GLN A   3      -8.348  22.121 -15.898  1.00  0.00    -0.270 OA
ATOM     26  NE2 GLN A   3     -10.008  21.959 -14.382  1.00  0.00    -0.007 N 
ATOM     27  N   ALA A   4      -9.648  18.399 -13.839  1.00  0.00    -0.196 N 
ATOM     28  CA  ALA A   4     -10.849  18.591 -13.032  1.00  0.00    +0.173 C 
ATOM     29  C   ALA A   4     -11.635  19.803 -13.504  1.00  0.00    +0.248 C 
ATOM     30  O   ALA A   4     -11.055  20.794 -13.944  1.00  0.00    -0.344 OA
ATOM     31  CB  ALA A   4     -10.492  18.758 -11.564  1.00  0.00    +0.034 C 
ATOM     32  N   VAL A   5     -12.961  19.726 -13.413  1.00  0.00    -0.231 NA
ATOM     33  CA  VAL A   5     -13.820  20.794 -13.919  1.00  0.00    +0.183 C 
ATOM     34  C   VAL A   5     -13.819  21.960 -12.944  1.00  0.00    +0.264 C 
ATOM     35  O   VAL A   5     -13.835  21.759 -11.731  1.00  0.00    -0.271 OA
ATOM     36  CB  VAL A   5     -15.247  20.317 -14.137  1.00  0.00    +0.032 C 
ATOM     37  CG1 VAL A   5     -15.263  18.996 -14.903  1.00  0.00    +0.003 C 
ATOM     38  CG2 VAL A   5     -15.945  20.094 -12.797  1.00  0.00    +0.003 C 
ATOM     39  N   ASN A   6     -13.801  23.180 -13.473  1.00  0.00    -0.196 N 
ATOM     40  CA  ASN A   6     -14.438  24.310 -12.803  1.00  0.00    +0.182 C 
ATOM     41  C   ASN A   6     -15.954  24.195 -12.841  1.00  0.00    +0.262 C 
ATOM     42  O   ASN A   6     -16.525  23.789 -13.852  1.00  0.00    -0.271 OA
ATOM     43  CB  ASN A   6     -14.013  25.627 -13.431  1.00  0.00    +0.120 C 
ATOM     44  CG  ASN A   6     -12.535  25.917 -13.233  1.00  0.00    +0.263 C 
ATOM     45  OD1 ASN A   6     -12.126  26.422 -12.189  1.00  0.00    -0.272 OA
ATOM     46  ND2 ASN A   6     -11.727  25.599 -14.241  1.00  0.00    -0.088 N 
ATOM     47  N   ALA A   7     -16.607  24.553 -11.738  1.00  0.00    -0.196 N 
ATOM     48  CA  ALA A   7     -18.028  24.886 -11.770  1.00  0.00    +0.173 C 
ATOM     49  C   ALA A   7     -18.285  26.107 -12.636  1.00  0.00    +0.262 C 
ATOM     50  O   ALA A   7     -17.492  27.049 -12.638  1.00  0.00    -0.271 OA
ATOM     51  CB  ALA A   7     -18.554  25.140 -10.366  1.00  0.00    +0.033 C 
ATOM     52  N   LEU A   8     -19.391  26.094 -13.374  1.00  0.00    -0.196 N 
ATOM     53  CA  LEU A   8     -20.000  27.331 -13.854  1.00  0.00    +0.173 C 
ATOM     54  C   LEU A   8     -20.702  28.064 -12.722  1.00  0.00    +0.262 C 
ATOM     55  O   LEU A   8     -21.373  27.442 -11.899  1.00  0.00    -0.271 OA
ATOM     56  CB  LEU A   8     -20.994  27.045 -14.968  1.00  0.00    +0.031 C 
ATOM     57  CG  LEU A   8     -20.395  26.696 -16.331  1.00  0.00    +0.002 C 
ATOM     58  CD1 LEU A   8     -21.393  27.007 -17.441  1.00  0.00    +0.000 C 
ATOM     59  CD2 LEU A   8     -20.312  25.184 -16.509  1.00  0.00    +0.000 C 
ATOM     60  N   LEU A   9     -20.549  29.384 -12.681  1.00  0.00    -0.196 N 
ATOM     61  CA  LEU A   9     -21.295  30.207 -11.732  1.00  0.00    +0.173 C 
ATOM     62  C   LEU A   9     -22.301  31.089 -12.454  1.00  0.00    +0.262 C 
ATOM     63  O   LEU A   9     -22.103  31.439 -13.617  1.00  0.00    -0.271 OA
ATOM     64  CB  LEU A   9     -20.352  31.075 -10.916  1.00  0.00    +0.031 C 
ATOM     65  CG  LEU A   9     -19.369  30.332 -10.008  1.00  0.00    +0.002 C 
ATOM     66  CD1 LEU A   9     -18.561  31.325  -9.180  1.00  0.00    +0.000 C 
ATOM     67  CD2 LEU A   9     -18.231  29.734 -10.829  1.00  0.00    +0.000 C 
ATOM     68  N   VAL A  10     -23.379  31.450 -11.766  1.00  0.00    -0.195 N 
ATOM     69  CA  VAL A  10     -23.419  31.361 -10.310  1.00  0.00    +0.191 C 
ATOM     70  C   VAL A  10     -24.319  30.211  -9.889  1.00  0.00    +0.263 C 
ATOM     71  O   VAL A  10     -25.182  29.782 -10.652  1.00  0.00    -0.271 OA
ATOM     72  CB  VAL A  10     -23.915  32.650  -9.676  1.00  0.00    +0.109 C 
ATOM     73  CG1 VAL A  10     -23.050  33.029  -8.476  1.00  0.00    +0.098 C 
ATOM     74  CG2 VAL A  10     -23.852  33.798 -10.682  1.00  0.00    +0.123 C 
ATOM     75  N   PHE A  11     -24.117  29.709  -8.674  1.00  0.00    -0.196 N 
ATOM     76  CA  PHE A  11     -25.198  29.621  -7.698  1.00  0.00    +0.177 C 
ATOM     77  C   PHE A  11     -25.374  30.944  -6.969  1.00  0.00    +0.262 C 
ATOM     78  O   PHE A  11     -26.499  31.366  -6.704  1.00  0.00    -0.271 OA
ATOM     79  CB  PHE A  11     -24.931  28.517  -6.688  1.00  0.00    +0.057 C 
ATOM     80  CG  PHE A  11     -25.308  27.149  -7.174  1.00  0.00    -0.020 A 
ATOM     81  CD1 PHE A  11     -24.466  26.462  -8.042  1.00  0.00    -0.004 A 
ATOM     82  CE1 PHE A  11     -24.815  25.195  -8.491  1.00  0.00    -0.000 A 
ATOM     83  CD2 PHE A  11     -26.497  26.566  -6.754  1.00  0.00    -0.004 A 
ATOM     84  CE2 PHE A  11     -26.846  25.298  -7.203  1.00  0.00    -0.000 A 
ATOM     85  CZ  PHE A  11     -26.005  24.612  -8.071  1.00  0.00    -0.000 A 
ATOM     86  N   PHE A  12     -24.264  31.598  -6.644  1.00  0.00    -0.196 N 
ATOM     87  CA  PHE A  12     -24.282  33.030  -6.356  1.00  0.00    +0.174 C 
ATOM     88  C   PHE A  12     -24.258  33.839  -7.643  1.00  0.00    +0.233 C 
ATOM     89  O   PHE A  12     -24.884  34.895  -7.728  1.00  0.00    -0.274 OA
ATOM     90  CB  PHE A  12     -23.097  33.424  -5.488  1.00  0.00    +0.057 C 
ATOM     91  CG  PHE A  12     -22.986  32.631  -4.221  1.00  0.00    -0.020 A 
ATOM     92  CD1 PHE A  12     -23.830  32.906  -3.152  1.00  0.00    -0.004 A 
ATOM     93  CE1 PHE A  12     -23.728  32.170  -1.976  1.00  0.00    -0.000 A 
ATOM     94  CD2 PHE A  12     -22.037  31.620  -4.114  1.00  0.00    -0.004 A 
ATOM     95  CE2 PHE A  12     -21.934  30.884  -2.939  1.00  0.00    -0.000 A 
ATOM     96  CZ  PHE A  12     -22.778  31.161  -1.870  1.00  0.00    -0.000 A 
ATOM     97  N   ALA A  13     -23.535  33.346  -8.646  1.00  0.00    -0.322 NA
ATOM     98  CA  ALA A  13     -22.760  34.217  -9.523  1.00  0.00    +0.105 C 
ATOM     99  C   ALA A  13     -23.668  35.154 -10.305  1.00  0.00    +0.205 C 
ATOM    100  O   ALA A  13     -23.239  36.225 -10.733  1.00  0.00    -0.206 OA
ATOM    101  CB  ALA A  13     -21.921  33.399 -10.492  1.00  0.00    +0.024 C 
ATOM    102  N   GLY A  14     -24.921  34.752 -10.491  1.00  0.00    -0.237 NA
ATOM    103  CA  GLY A  14     -26.052  35.635 -10.215  1.00  0.00    +0.162 C 
ATOM    104  C   GLY A  14     -27.251  34.840  -9.725  1.00  0.00    +0.258 C 
ATOM    105  O   GLY A  14     -27.125  33.666  -9.382  1.00  0.00    -0.272 OA
ATOM    106  N   SER A  15     -28.416  35.481  -9.692  1.00  0.00    -0.194 N 
ATOM    107  CA  SER A  15     -29.658  34.782  -9.375  1.00  0.00    +0.205 C 
ATOM    108  C   SER A  15     -30.122  33.925 -10.542  1.00  0.00    +0.264 C 
ATOM    109  O   SER A  15     -29.808  34.217 -11.696  1.00  0.00    -0.271 OA
ATOM    110  CB  SER A  15     -30.752  35.771  -9.007  1.00  0.00    +0.213 C 
ATOM    111  OG  SER A  15     -31.125  36.550 -10.130  1.00  0.00    -0.218 OA
ATOM    112  N   SER A  16     -30.870  32.866 -10.244  1.00  0.00    -0.194 N 
ATOM    113  CA  SER A  16     -31.329  31.944 -11.280  1.00  0.00    +0.205 C 
ATOM    114  C   SER A  16     -32.483  32.535 -12.072  1.00  0.00    +0.264 C 
ATOM    115  O   SER A  16     -33.303  33.272 -11.526  1.00  0.00    -0.271 OA
ATOM    116  CB  SER A  16     -31.758  30.621 -10.669  1.00  0.00    +0.213 C 
ATOM    117  OG  SER A  16     -32.995  30.757  -9.992  1.00  0.00    -0.218 OA
ATOM    118  N   ASP A  17     -32.549  32.212 -13.361  1.00  0.00    -0.196 N 
ATOM    119  CA  ASP A  17     -33.831  31.965 -14.017  1.00  0.00    +0.184 C 
ATOM    120  C   ASP A  17     -34.113  30.475 -14.122  1.00  0.00    +0.262 C 
ATOM    121  O   ASP A  17     -33.222  29.694 -14.456  1.00  0.00    -0.271 OA
ATOM    122  CB  ASP A  17     -33.858  32.585 -15.405  1.00  0.00    +0.145 C 
ATOM    123  CG  ASP A  17     -33.829  34.104 -15.380  1.00  0.00    +0.367 C 
ATOM    124  OD1 ASP A  17     -34.114  34.701 -14.319  1.00  0.00    -0.246 OA
ATOM    125  OD2 ASP A  17     -33.518  34.706 -16.429  1.00  0.00    -0.246 OA
ATOM    126  N   ALA A  18     -35.349  30.079 -13.835  1.00  0.00    -0.196 N 
ATOM    127  CA  ALA A  18     -36.067  29.142 -14.693  1.00  0.00    +0.173 C 
ATOM    128  C   ALA A  18     -36.326  29.745 -16.064  1.00  0.00    +0.262 C 
ATOM    129  O   ALA A  18     -36.561  30.948 -16.183  1.00  0.00    -0.271 OA
ATOM    130  CB  ALA A  18     -37.387  28.734 -14.061  1.00  0.00    +0.033 C 
ATOM    131  N   ILE A  19     -36.285  28.914 -17.101  1.00  0.00    -0.196 N 
ATOM    132  CA  ILE A  19     -36.773  29.313 -18.417  1.00  0.00    +0.173 C 
ATOM    133  C   ILE A  19     -37.861  28.353 -18.872  1.00  0.00    +0.262 C 
ATOM    134  O   ILE A  19     -37.742  27.142 -18.694  1.00  0.00    -0.271 OA
ATOM    135  CB  ILE A  19     -35.659  29.345 -19.450  1.00  0.00    +0.029 C 
ATOM    136  CG1 ILE A  19     -34.536  30.280 -19.004  1.00  0.00    +0.002 C 
ATOM    137  CG2 ILE A  19     -36.198  29.808 -20.801  1.00  0.00    +0.002 C 
ATOM    138  CD1 ILE A  19     -34.892  31.755 -19.088  1.00  0.00    +0.000 C 
ATOM    139  N   ARG A  20     -38.924  28.894 -19.462  1.00  0.00    -0.196 N 
ATOM    140  CA  ARG A  20     -39.623  28.207 -20.543  1.00  0.00    +0.173 C 
ATOM    141  C   ARG A  20     -38.727  28.051 -21.761  1.00  0.00    +0.262 C 
ATOM    142  O   ARG A  20     -38.725  27.005 -22.407  1.00  0.00    -0.271 OA
ATOM    143  CB  ARG A  20     -40.886  28.957 -20.935  1.00  0.00    +0.033 C 
ATOM    144  CG  ARG A  20     -41.711  28.257 -22.002  1.00  0.00    +0.029 C 
ATOM    145  CD  ARG A  20     -43.198  28.312 -21.693  1.00  0.00    +0.129 C 
ATOM    146  NE  ARG A  20     -43.737  29.656 -21.876  1.00  0.00    -0.234 NA
ATOM    147  CZ  ARG A  20     -45.002  30.002 -21.655  1.00  0.00    +0.284 C 
ATOM    148  NH1 ARG A  20     -45.437  31.221 -21.964  1.00  0.00    -0.104 N 
ATOM    149  NH2 ARG A  20     -45.841  29.119 -21.119  1.00  0.00    -0.104 N 
ATOM    150  N   ARG A  21     -37.964  29.094 -22.076  1.00  0.00    -0.194 N 
ATOM    151  CA  ARG A  21     -37.660  29.422 -23.467  1.00  0.00    +0.198 C 
ATOM    152  C   ARG A  21     -36.218  29.081 -23.803  1.00  0.00    +0.384 C 
ATOM    153  O   ARG A  21     -35.652  28.139 -23.250  1.00  0.00    -0.244 OA
ATOM    154  CB  ARG A  21     -37.912  30.895 -23.745  1.00  0.00    +0.035 C 
ATOM    155  CG  ARG A  21     -39.384  31.260 -23.834  1.00  0.00    +0.029 C 
ATOM    156  CD  ARG A  21     -39.625  32.721 -23.494  1.00  0.00    +0.129 C 
ATOM    157  NE  ARG A  21     -40.979  33.141 -23.845  1.00  0.00    -0.234 NA
ATOM    158  CZ  ARG A  21     -41.275  34.078 -24.740  1.00  0.00    +0.284 C 
ATOM    159  NH1 ARG A  21     -40.315  34.811 -25.296  1.00  0.00    -0.104 N 
ATOM    160  NH2 ARG A  21     -42.544  34.282 -25.083  1.00  0.00    -0.104 N 
ATOM    161  OXT ARG A  21     -35.597  29.743 -24.633  1.00  0.00    -0.244 OA
ATOM    162  H   MET A   1      -3.780  13.933 -19.590  1.00  0.00    +0.000 HD
ATOM    163  H   MET A   1      -2.207  14.086 -19.061  1.00  0.00    +0.000 HD
ATOM    164  H   LYS A   2      -5.313  14.372 -15.792  1.00  0.00    +0.000 HD
ATOM    165  H   LYS A   2     -11.501  12.561 -12.765  1.00  0.00    +0.000 HD
ATOM    166  H   GLN A   3      -7.917  17.595 -17.661  1.00  0.00    +0.000 HD
ATOM    167  H   GLN A   3      -9.819  22.770 -13.857  1.00  0.00    +0.000 HD
ATOM    168  H   ALA A   4      -8.764  18.482 -13.415  1.00  0.00    +0.000 HD
ATOM    169  H   ASN A   6     -13.348  23.325 -14.335  1.00  0.00    +0.000 HD
ATOM    170  H   ASN A   6     -12.097  25.196 -15.060  1.00  0.00    +0.000 HD
ATOM    171  H   ASN A   6     -10.759  25.766 -14.169  1.00  0.00    +0.000 HD
ATOM    172  H   ALA A   7     -16.121  24.595 -10.883  1.00  0.00    +0.000 HD
ATOM    173  H   LEU A   8     -19.808  25.231 -13.602  1.00  0.00    +0.000 HD
ATOM    174  H   LEU A   9     -19.921  29.816 -13.303  1.00  0.00    +0.000 HD
ATOM    175  H   VAL A  10     -24.168  31.786 -12.249  1.00  0.00    +0.000 HD
ATOM    176  H   PHE A  11     -23.219  29.391  -8.427  1.00  0.00    +0.000 HD
ATOM    177  H   PHE A  12     -23.412  31.108  -6.597  1.00  0.00    +0.000 HD
ATOM    178  H   ALA A  13     -23.947  36.692 -11.204  1.00  0.00    +0.000 HD
ATOM    179  H   SER A  15     -28.442  36.446  -9.885  1.00  0.00    +0.000 HD
ATOM    180  H   SER A  15     -30.356  37.050 -10.447  1.00  0.00    +0.000 HD
ATOM    181  H   SER A  16     -31.118  32.700  -9.306  1.00  0.00    +0.000 HD
ATOM    182  H   SER A  16     -32.903  31.407  -9.277  1.00  0.00    +0.000 HD
ATOM    183  H   ASP A  17     -31.717  32.137 -13.883  1.00  0.00    +0.000 HD
ATOM    184  H   ASP A  17     -34.342  34.212 -13.553  1.00  0.00    +0.000 HD
ATOM    185  H   ALA A  18     -35.790  30.426 -13.026  1.00  0.00    +0.000 HD
ATOM    186  H   ILE A  19     -35.916  28.009 -16.977  1.00  0.00    +0.000 HD
ATOM    187  H   ARG A  20     -39.245  29.775 -19.163  1.00  0.00    +0.000 HD
ATOM    188  H   ARG A  20     -44.820  31.877 -22.361  1.00  0.00    +0.000 HD
ATOM    189  H   ARG A  20     -46.375  31.465 -21.797  1.00  0.00    +0.000 HD
ATOM    190  H   ARG A  20     -45.524  28.216 -20.888  1.00  0.00    +0.000 HD
ATOM    191  H   ARG A  20     -46.779  29.368 -20.953  1.00  0.00    +0.000 HD
ATOM    192  H   ARG A  21     -37.596  29.656 -21.356  1.00  0.00    +0.000 HD
ATOM    193  H   ARG A  21     -36.109  27.624 -22.615  1.00  0.00    +0.000 HD
ATOM    194  H   ARG A  21     -40.545  35.503 -25.958  1.00  0.00    +0.000 HD
ATOM    195  H   ARG A  21     -39.374  34.663 -25.046  1.00  0.00    +0.000 HD
ATOM    196  H   ARG A  21     -42.768  34.975 -25.745  1.00  0.00    +0.000 HD
ATOM    197  H   ARG A  21     -43.257  33.740 -24.675  1.00  0.00    +0.000 HD
ENDROOT
TORSDOF 0
