REMARK  Name = /var/folders/yp/yjbh3p597675h2qddgqr02y00000gn/T/tmpent6ulbn.pdb
REMARK     285 UNITARY VALUES FOR THE UNIT CELL AUTOMATICALLY SET
REMARK     285 BY MDANALYSIS PDBWRITER BECAUSE UNIT CELL INFORMATION
REMARK     285 WAS MISSING.
REMARK     285 PROTEIN DATA BANK CONVENTIONS REQUIRE THAT
REMARK     285 CRYST1 RECORD IS INCLUDED, BUT THE VALUES ON
REMARK     285 THIS RECORD ARE MEANINGLESS.
REMARK     285 UNITARY VALUES FOR THE UNIT CELL AUTOMATICALLY SET
REMARK     285 BY MDANALYSIS PDBWRITER BECAUSE UNIT CELL INFORMATION
REMARK     285 WAS MISSING.
REMARK     285 PROTEIN DATA BANK CONVENTIONS REQUIRE THAT
REMARK     285 CRYST1 RECORD IS INCLUDED, BUT THE VALUES ON
REMARK     285 THIS RECORD ARE MEANINGLESS.
REMARK                            x       y       z     vdW  Elec       q    Type
REMARK                         _______ _______ _______ _____ _____    ______ ____
REMARK  Name = /var/folders/yp/yjbh3p597675h2qddgqr02y00000gn/T/tmpent6ulbn.pdb
REMARK     285 UNITARY VALUES FOR THE UNIT CELL AUTOMATICALLY SET
REMARK     285 BY MDANALYSIS PDBWRITER BECAUSE UNIT CELL INFORMATION
REMARK     285 WAS MISSING.
REMARK     285 PROTEIN DATA BANK CONVENTIONS REQUIRE THAT
REMARK     285 CRYST1 RECORD IS INCLUDED, BUT THE VALUES ON
REMARK     285 THIS RECORD ARE MEANINGLESS.
REMARK     285 UNITARY VALUES FOR THE UNIT CELL AUTOMATICALLY SET
REMARK     285 BY MDANALYSIS PDBWRITER BECAUSE UNIT CELL INFORMATION
REMARK     285 WAS MISSING.
REMARK     285 PROTEIN DATA BANK CONVENTIONS REQUIRE THAT
REMARK     285 CRYST1 RECORD IS INCLUDED, BUT THE VALUES ON
REMARK     285 THIS RECORD ARE MEANINGLESS.
REMARK                            x       y       z     vdW  Elec       q    Type
REMARK                         _______ _______ _______ _____ _____    ______ ____
ROOT
ATOM      1  N   MET A   1       5.545   9.556 -17.200  1.00  0.00    -0.123 NA
ATOM      2  CA  MET A   1       4.688  10.682 -17.560  1.00  0.00    +0.170 C 
ATOM      3  C   MET A   1       4.070  10.476 -18.933  1.00  0.00    +0.259 C 
ATOM      4  O   MET A   1       4.694   9.897 -19.820  1.00  0.00    -0.272 OA
ATOM      5  CB  MET A   1       5.471  11.984 -17.547  1.00  0.00    +0.040 C 
ATOM      6  CG  MET A   1       6.049  12.336 -16.184  1.00  0.00    +0.060 C 
ATOM      7  SD  MET A   1       7.474  13.446 -16.295  1.00  0.00    -0.139 S 
ATOM      8  CE  MET A   1       6.908  14.809 -15.284  1.00  0.00    +0.069 C 
ATOM      9  N   LYS A   2       2.841  10.953 -19.111  1.00  0.00    -0.197 N 
ATOM     10  CA  LYS A   2       2.149  10.812 -20.389  1.00  0.00    +0.173 C 
ATOM     11  C   LYS A   2       2.705  11.783 -21.421  1.00  0.00    +0.262 C 
ATOM     12  O   LYS A   2       3.238  12.833 -21.066  1.00  0.00    -0.271 OA
ATOM     13  CB  LYS A   2       0.657  11.048 -20.226  1.00  0.00    +0.031 C 
ATOM     14  CG  LYS A   2      -0.209  10.001 -20.909  1.00  0.00    +0.009 C 
ATOM     15  CD  LYS A   2      -0.102   8.647 -20.228  1.00  0.00    +0.049 C 
ATOM     16  CE  LYS A   2      -1.072   7.696 -20.763  1.00  0.00    +0.096 C 
ATOM     17  NZ  LYS A   2      -1.331   6.501 -20.241  1.00  0.00    -0.151 NA
ATOM     18  N   GLN A   3       2.581  11.432 -22.697  1.00  0.00    -0.196 N 
ATOM     19  CA  GLN A   3       2.472  12.433 -23.753  1.00  0.00    +0.173 C 
ATOM     20  C   GLN A   3       1.055  12.499 -24.299  1.00  0.00    +0.262 C 
ATOM     21  O   GLN A   3       0.359  11.487 -24.356  1.00  0.00    -0.271 OA
ATOM     22  CB  GLN A   3       3.439  12.133 -24.887  1.00  0.00    +0.041 C 
ATOM     23  CG  GLN A   3       4.895  12.386 -24.533  1.00  0.00    +0.091 C 
ATOM     24  CD  GLN A   3       5.860  11.754 -25.523  1.00  0.00    +0.261 C 
ATOM     25  OE1 GLN A   3       6.849  12.379 -25.935  1.00  0.00    -0.272 OA
ATOM     26  NE2 GLN A   3       5.583  10.513 -25.912  1.00  0.00    -0.088 N 
ATOM     27  N   ALA A   4       0.626  13.693 -24.699  1.00  0.00    -0.196 N 
ATOM     28  CA  ALA A   4       0.523  14.028 -26.117  1.00  0.00    +0.173 C 
ATOM     29  C   ALA A   4       1.887  13.990 -26.787  1.00  0.00    +0.262 C 
ATOM     30  O   ALA A   4       2.914  14.128 -26.125  1.00  0.00    -0.271 OA
ATOM     31  CB  ALA A   4      -0.095  15.404 -26.302  1.00  0.00    +0.033 C 
ATOM     32  N   VAL A   5       1.898  13.802 -28.104  1.00  0.00    -0.196 N 
ATOM     33  CA  VAL A   5       2.387  14.833 -29.013  1.00  0.00    +0.171 C 
ATOM     34  C   VAL A   5       1.352  15.938 -29.141  1.00  0.00    +0.246 C 
ATOM     35  O   VAL A   5       0.172  15.667 -29.365  1.00  0.00    -0.273 OA
ATOM     36  CB  VAL A   5       2.701  14.271 -30.391  1.00  0.00    +0.029 C 
ATOM     37  CG1 VAL A   5       3.302  12.871 -30.279  1.00  0.00    +0.002 C 
ATOM     38  CG2 VAL A   5       1.429  14.173 -31.228  1.00  0.00    +0.002 C 
ATOM     39  N   ASN A   6       1.790  17.185 -28.999  1.00  0.00    -0.276 N 
ATOM     40  CA  ASN A   6       1.174  18.295 -29.720  1.00  0.00    +0.104 C 
ATOM     41  C   ASN A   6       1.493  18.240 -31.206  1.00  0.00    +0.304 C 
ATOM     42  O   ASN A   6       0.899  18.969 -31.999  1.00  0.00    -0.265 OA
ATOM     43  CB  ASN A   6       1.628  19.631 -29.155  1.00  0.00    +0.110 C 
ATOM     44  CG  ASN A   6       0.570  20.713 -29.294  1.00  0.00    +0.262 C 
ATOM     45  OD1 ASN A   6       0.168  21.064 -30.403  1.00  0.00    -0.272 OA
ATOM     46  ND2 ASN A   6       0.117  21.249 -28.164  1.00  0.00    -0.088 N 
ATOM     47  N   ALA A   7       2.430  17.375 -31.582  1.00  0.00    -0.257 N 
ATOM     48  CA  ALA A   7       2.963  17.375 -32.941  1.00  0.00    +0.128 C 
ATOM     49  C   ALA A   7       1.989  16.727 -33.912  1.00  0.00    +0.311 C 
ATOM     50  O   ALA A   7       2.121  16.880 -35.124  1.00  0.00    -0.180 OA
ATOM     51  N   LEU A   8       1.011  16.001 -33.377  1.00  0.00    -0.163 NA
ATOM     52  CA  LEU A   8       0.081  15.246 -34.213  1.00  0.00    +0.155 C 
ATOM     53  C   LEU A   8      -1.094  16.113 -34.634  1.00  0.00    +0.258 C 
ATOM     54  O   LEU A   8      -2.069  15.614 -35.194  1.00  0.00    -0.272 OA
ATOM     55  CB  LEU A   8      -0.432  14.019 -33.476  1.00  0.00    +0.027 C 
ATOM     56  CG  LEU A   8       0.526  12.828 -33.405  1.00  0.00    +0.002 C 
ATOM     57  CD1 LEU A   8       0.292  12.039 -32.122  1.00  0.00    +0.000 C 
ATOM     58  CD2 LEU A   8       1.949  13.301 -33.131  1.00  0.00    +0.000 C 
ATOM     59  N   LEU A   9      -1.003  17.413 -34.365  1.00  0.00    -0.197 N 
ATOM     60  CA  LEU A   9      -0.195  18.306 -35.191  1.00  0.00    +0.171 C 
ATOM     61  C   LEU A   9       1.264  18.262 -34.768  1.00  0.00    +0.249 C 
ATOM     62  O   LEU A   9       2.080  19.041 -35.254  1.00  0.00    -0.273 OA
ATOM     63  CB  LEU A   9      -0.707  19.733 -35.101  1.00  0.00    +0.031 C 
ATOM     64  CG  LEU A   9      -1.595  20.206 -36.255  1.00  0.00    +0.002 C 
ATOM     65  CD1 LEU A   9      -2.068  21.633 -36.008  1.00  0.00    +0.000 C 
ATOM     66  CD2 LEU A   9      -2.946  19.502 -36.214  1.00  0.00    +0.000 C 
ATOM     67  N   VAL A  10       1.593  17.348 -33.860  1.00  0.00    -0.224 N 
ATOM     68  CA  VAL A  10       2.090  17.731 -32.541  1.00  0.00    +0.167 C 
ATOM     69  C   VAL A  10       3.611  17.758 -32.553  1.00  0.00    +0.245 C 
ATOM     70  O   VAL A  10       4.248  16.834 -33.056  1.00  0.00    -0.273 OA
ATOM     71  CB  VAL A  10       1.608  16.784 -31.455  1.00  0.00    +0.097 C 
ATOM     72  CG1 VAL A  10       1.944  17.334 -30.071  1.00  0.00    +0.112 C 
ATOM     73  CG2 VAL A  10       0.094  16.605 -31.537  1.00  0.00    +0.023 C 
ATOM     74  N   PHE A  11       4.192  18.819 -32.000  1.00  0.00    -0.197 N 
ATOM     75  CA  PHE A  11       5.619  19.080 -32.173  1.00  0.00    +0.177 C 
ATOM     76  C   PHE A  11       6.386  18.737 -30.907  1.00  0.00    +0.262 C 
ATOM     77  O   PHE A  11       6.111  19.286 -29.841  1.00  0.00    -0.271 OA
ATOM     78  CB  PHE A  11       5.863  20.535 -32.538  1.00  0.00    +0.057 C 
ATOM     79  CG  PHE A  11       5.348  20.916 -33.894  1.00  0.00    -0.020 A 
ATOM     80  CD1 PHE A  11       6.184  20.839 -35.001  1.00  0.00    -0.004 A 
ATOM     81  CE1 PHE A  11       5.707  21.193 -36.259  1.00  0.00    -0.000 A 
ATOM     82  CD2 PHE A  11       4.034  21.346 -34.043  1.00  0.00    -0.004 A 
ATOM     83  CE2 PHE A  11       3.557  21.699 -35.299  1.00  0.00    -0.000 A 
ATOM     84  CZ  PHE A  11       4.393  21.622 -36.407  1.00  0.00    -0.000 A 
ATOM     85  N   PHE A  12       7.349  17.827 -31.021  1.00  0.00    -0.196 N 
ATOM     86  CA  PHE A  12       8.657  18.021 -30.401  1.00  0.00    +0.177 C 
ATOM     87  C   PHE A  12       9.483  19.024 -31.191  1.00  0.00    +0.262 C 
ATOM     88  O   PHE A  12       9.649  18.881 -32.401  1.00  0.00    -0.271 OA
ATOM     89  CB  PHE A  12       9.411  16.706 -30.302  1.00  0.00    +0.060 C 
ATOM     90  CG  PHE A  12      10.844  16.857 -29.888  1.00  0.00    +0.011 A 
ATOM     91  CD1 PHE A  12      11.155  17.350 -28.626  1.00  0.00    +0.125 A 
ATOM     92  CE1 PHE A  12      12.483  17.492 -28.242  1.00  0.00    +0.092 C 
ATOM     93  CD2 PHE A  12      11.863  16.505 -30.765  1.00  0.00    -0.002 A 
ATOM     94  CE2 PHE A  12      13.191  16.645 -30.382  1.00  0.00    -0.002 A 
ATOM     95  CZ  PHE A  12      13.502  17.139 -29.119  1.00  0.00    +0.008 A 
ATOM     96  N   ALA A  13      10.000  20.041 -30.506  1.00  0.00    -0.196 N 
ATOM     97  CA  ALA A  13      11.438  20.292 -30.490  1.00  0.00    +0.171 C 
ATOM     98  C   ALA A  13      12.170  19.236 -29.679  1.00  0.00    +0.225 A 
ATOM     99  O   ALA A  13      11.571  18.573 -28.831  1.00  0.00    -0.442 OA
ATOM    100  CB  ALA A  13      11.738  21.668 -29.920  1.00  0.00    +0.033 C 
ATOM    101  N   GLY A  14      13.464  19.077 -29.936  1.00  0.00    -0.209 NA
ATOM    102  CA  GLY A  14      14.107  17.771 -29.822  1.00  0.00    +0.135 A 
ATOM    103  C   GLY A  14      15.460  17.770 -30.515  1.00  0.00    +0.283 C 
ATOM    104  O   GLY A  14      15.836  18.753 -31.151  1.00  0.00    -0.267 OA
ATOM    105  N   SER A  15      16.190  16.665 -30.395  1.00  0.00    -0.190 N 
ATOM    106  CA  SER A  15      17.606  16.646 -30.752  1.00  0.00    +0.206 C 
ATOM    107  C   SER A  15      17.793  16.588 -32.260  1.00  0.00    +0.264 C 
ATOM    108  O   SER A  15      16.906  16.133 -32.981  1.00  0.00    -0.271 OA
ATOM    109  CB  SER A  15      18.305  15.460 -30.109  1.00  0.00    +0.213 C 
ATOM    110  OG  SER A  15      17.929  14.250 -30.741  1.00  0.00    -0.218 OA
ATOM    111  N   SER A  16      18.945  17.051 -32.736  1.00  0.00    -0.194 N 
ATOM    112  CA  SER A  16      19.545  16.496 -33.946  1.00  0.00    +0.205 C 
ATOM    113  C   SER A  16      20.061  15.086 -33.709  1.00  0.00    +0.264 C 
ATOM    114  O   SER A  16      20.233  14.318 -34.655  1.00  0.00    -0.271 OA
ATOM    115  CB  SER A  16      20.682  17.378 -34.433  1.00  0.00    +0.213 C 
ATOM    116  OG  SER A  16      21.723  17.433 -33.473  1.00  0.00    -0.218 OA
ATOM    117  N   ASP A  17      20.310  14.746 -32.449  1.00  0.00    -0.196 N 
ATOM    118  CA  ASP A  17      21.671  14.503 -31.980  1.00  0.00    +0.184 C 
ATOM    119  C   ASP A  17      22.137  13.106 -32.359  1.00  0.00    +0.262 C 
ATOM    120  O   ASP A  17      23.290  12.913 -32.741  1.00  0.00    -0.271 OA
ATOM    121  CB  ASP A  17      21.767  14.678 -30.474  1.00  0.00    +0.145 C 
ATOM    122  CG  ASP A  17      21.628  16.126 -30.033  1.00  0.00    +0.367 C 
ATOM    123  OD1 ASP A  17      21.993  17.038 -30.806  1.00  0.00    -0.246 OA
ATOM    124  OD2 ASP A  17      21.146  16.355 -28.903  1.00  0.00    -0.246 OA
ATOM    125  N   ALA A  18      21.240  12.128 -32.252  1.00  0.00    -0.196 N 
ATOM    126  CA  ALA A  18      21.602  10.820 -31.718  1.00  0.00    +0.173 C 
ATOM    127  C   ALA A  18      21.264   9.714 -32.704  1.00  0.00    +0.262 C 
ATOM    128  O   ALA A  18      20.386   9.877 -33.549  1.00  0.00    -0.271 OA
ATOM    129  CB  ALA A  18      20.888  10.560 -30.402  1.00  0.00    +0.033 C 
ATOM    130  N   ILE A  19      21.962   8.587 -32.599  1.00  0.00    -0.196 N 
ATOM    131  CA  ILE A  19      21.509   7.352 -33.230  1.00  0.00    +0.173 C 
ATOM    132  C   ILE A  19      20.950   6.409 -32.176  1.00  0.00    +0.262 C 
ATOM    133  O   ILE A  19      21.391   6.424 -31.028  1.00  0.00    -0.271 OA
ATOM    134  CB  ILE A  19      22.629   6.657 -33.988  1.00  0.00    +0.029 C 
ATOM    135  CG1 ILE A  19      23.979   7.287 -33.652  1.00  0.00    +0.002 C 
ATOM    136  CG2 ILE A  19      22.389   6.748 -35.493  1.00  0.00    +0.002 C 
ATOM    137  CD1 ILE A  19      25.160   6.617 -34.336  1.00  0.00    +0.000 C 
ATOM    138  N   ARG A  20      19.979   5.588 -32.564  1.00  0.00    -0.196 N 
ATOM    139  CA  ARG A  20      19.741   4.318 -31.887  1.00  0.00    +0.173 C 
ATOM    140  C   ARG A  20      20.696   3.247 -32.385  1.00  0.00    +0.262 C 
ATOM    141  O   ARG A  20      20.881   3.087 -33.592  1.00  0.00    -0.271 OA
ATOM    142  CB  ARG A  20      18.308   3.854 -32.089  1.00  0.00    +0.033 C 
ATOM    143  CG  ARG A  20      17.948   2.610 -31.293  1.00  0.00    +0.029 C 
ATOM    144  CD  ARG A  20      17.422   2.958 -29.909  1.00  0.00    +0.129 C 
ATOM    145  NE  ARG A  20      18.486   3.442 -29.035  1.00  0.00    -0.234 NA
ATOM    146  CZ  ARG A  20      19.352   2.665 -28.392  1.00  0.00    +0.284 C 
ATOM    147  NH1 ARG A  20      19.178   1.348 -28.348  1.00  0.00    -0.104 N 
ATOM    148  NH2 ARG A  20      20.403   3.213 -27.787  1.00  0.00    -0.104 N 
ATOM    149  N   ARG A  21      21.305   2.511 -31.459  1.00  0.00    -0.194 N 
ATOM    150  CA  ARG A  21      22.407   1.618 -31.802  1.00  0.00    +0.198 C 
ATOM    151  C   ARG A  21      21.907   0.200 -32.035  1.00  0.00    +0.384 C 
ATOM    152  O   ARG A  21      22.416  -0.507 -32.903  1.00  0.00    -0.244 OA
ATOM    153  CB  ARG A  21      23.459   1.609 -30.705  1.00  0.00    +0.035 C 
ATOM    154  CG  ARG A  21      22.954   2.120 -29.366  1.00  0.00    +0.029 C 
ATOM    155  CD  ARG A  21      23.468   1.277 -28.210  1.00  0.00    +0.129 C 
ATOM    156  NE  ARG A  21      22.817   1.633 -26.952  1.00  0.00    -0.234 NA
ATOM    157  CZ  ARG A  21      23.451   1.832 -25.801  1.00  0.00    +0.284 C 
ATOM    158  NH1 ARG A  21      22.813   1.698 -24.642  1.00  0.00    -0.104 N 
ATOM    159  NH2 ARG A  21      24.739   2.169 -25.809  1.00  0.00    -0.104 N 
ATOM    160  OXT ARG A  21      20.987  -0.257 -31.359  1.00  0.00    -0.244 OA
ATOM    161  H   MET A   1       5.947   9.717 -16.277  1.00  0.00    +0.000 HD
ATOM    162  H   MET A   1       6.295   9.466 -17.886  1.00  0.00    +0.000 HD
ATOM    163  H   LYS A   2       2.388  11.410 -18.366  1.00  0.00    +0.000 HD
ATOM    164  H   LYS A   2      -0.852   6.202 -19.435  1.00  0.00    +0.000 HD
ATOM    165  H   GLN A   3       2.562  10.477 -22.935  1.00  0.00    +0.000 HD
ATOM    166  H   GLN A   3       4.788  10.053 -25.560  1.00  0.00    +0.000 HD
ATOM    167  H   GLN A   3       6.174  10.055 -26.553  1.00  0.00    +0.000 HD
ATOM    168  H   ALA A   4       0.373  14.365 -24.026  1.00  0.00    +0.000 HD
ATOM    169  H   VAL A   5       1.570  12.950 -28.472  1.00  0.00    +0.000 HD
ATOM    170  H   ASN A   6       0.466  20.939 -27.297  1.00  0.00    +0.000 HD
ATOM    171  H   ASN A   6      -0.567  21.956 -28.193  1.00  0.00    +0.000 HD
ATOM    172  H   ALA A   7       1.282  17.183 -35.505  1.00  0.00    +0.000 HD
ATOM    173  H   LEU A   8       1.458  15.323 -32.759  1.00  0.00    +0.000 HD
ATOM    174  H   LEU A   9      -1.491  17.781 -33.593  1.00  0.00    +0.000 HD
ATOM    175  H   PHE A  11       3.650  19.440 -31.462  1.00  0.00    +0.000 HD
ATOM    176  H   PHE A  12       7.176  17.005 -31.535  1.00  0.00    +0.000 HD
ATOM    177  H   ALA A  13       9.401  20.636 -30.000  1.00  0.00    +0.000 HD
ATOM    178  H   SER A  15      15.767  15.842 -30.058  1.00  0.00    +0.000 HD
ATOM    179  H   SER A  15      18.182  14.282 -31.677  1.00  0.00    +0.000 HD
ATOM    180  H   SER A  16      19.403  17.783 -32.262  1.00  0.00    +0.000 HD
ATOM    181  H   SER A  16      22.072  16.540 -33.324  1.00  0.00    +0.000 HD
ATOM    182  H   ASP A  17      19.560  14.656 -31.817  1.00  0.00    +0.000 HD
ATOM    183  H   ASP A  17      22.350  16.826 -31.646  1.00  0.00    +0.000 HD
ATOM    184  H   ALA A  18      20.312  12.291 -32.540  1.00  0.00    +0.000 HD
ATOM    185  H   ILE A  19      22.802   8.586 -32.084  1.00  0.00    +0.000 HD
ATOM    186  H   ARG A  20      19.409   5.844 -33.325  1.00  0.00    +0.000 HD
ATOM    187  H   ARG A  20      19.826   0.782 -27.868  1.00  0.00    +0.000 HD
ATOM    188  H   ARG A  20      18.402   0.939 -28.794  1.00  0.00    +0.000 HD
ATOM    189  H   ARG A  20      21.048   2.642 -27.309  1.00  0.00    +0.000 HD
ATOM    190  H   ARG A  20      20.536   4.188 -27.817  1.00  0.00    +0.000 HD
ATOM    191  H   ARG A  21      21.005   2.569 -30.523  1.00  0.00    +0.000 HD
ATOM    192  H   ARG A  21      23.117  -0.173 -33.428  1.00  0.00    +0.000 HD
ATOM    193  H   ARG A  21      23.294   1.848 -23.795  1.00  0.00    +0.000 HD
ATOM    194  H   ARG A  21      21.861   1.449 -24.629  1.00  0.00    +0.000 HD
ATOM    195  H   ARG A  21      25.214   2.317 -24.960  1.00  0.00    +0.000 HD
ATOM    196  H   ARG A  21      25.216   2.269 -26.664  1.00  0.00    +0.000 HD
ATOM      1  CB  ALA A   7       4.298  16.648 -32.999  1.00  0.00    +0.000 C 
ENDROOT
TORSDOF 0
