REMARK  Name = /var/folders/yp/yjbh3p597675h2qddgqr02y00000gn/T/tmpdfdtyfud.pdb
REMARK   1 CREATED WITH OPENMM 8.6.1, 2026-10-07
REMARK                            x       y       z     vdW  Elec       q    Type
REMARK                         _______ _______ _______ _____ _____    ______ ____
ROOT
ATOM      1  N   MET A   1      -4.797   4.200 -10.849  1.00  0.00    -0.123 NA
ATOM      2  CA  MET A   1      -4.011   3.606 -11.954  1.00  0.00    +0.170 C 
ATOM      3  C   MET A   1      -3.749   2.139 -11.676  1.00  0.00    +0.259 C 
ATOM      4  O   MET A   1      -3.468   1.772 -10.535  1.00  0.00    -0.272 OA
ATOM      5  CB  MET A   1      -2.674   4.327 -12.158  1.00  0.00    +0.040 C 
ATOM      6  CG  MET A   1      -2.853   5.716 -12.780  1.00  0.00    +0.060 C 
ATOM      7  SD  MET A   1      -2.029   5.876 -14.384  1.00  0.00    -0.139 S 
ATOM      8  CE  MET A   1      -3.110   7.100 -15.164  1.00  0.00    +0.069 C 
ATOM      9  N   LYS A   2      -3.846   1.288 -12.701  1.00  0.00    -0.197 N 
ATOM     10  CA  LYS A   2      -3.789  -0.167 -12.527  1.00  0.00    +0.173 C 
ATOM     11  C   LYS A   2      -2.381  -0.658 -12.210  1.00  0.00    +0.262 C 
ATOM     12  O   LYS A   2      -1.435  -0.353 -12.933  1.00  0.00    -0.271 OA
ATOM     13  CB  LYS A   2      -4.348  -0.851 -13.779  1.00  0.00    +0.031 C 
ATOM     14  CG  LYS A   2      -4.543  -2.352 -13.543  1.00  0.00    +0.004 C 
ATOM     15  CD  LYS A   2      -5.805  -2.862 -14.242  1.00  0.00    +0.021 C 
ATOM     16  CE  LYS A   2      -6.030  -4.289 -13.759  1.00  0.00    +0.109 C 
ATOM     17  NZ  LYS A   2      -6.872  -5.091 -14.655  1.00  0.00    -0.131 NA
ATOM     18  N   GLN A   3      -2.234  -1.450 -11.152  1.00  0.00    -0.196 N 
ATOM     19  CA  GLN A   3      -1.688  -0.889  -9.924  1.00  0.00    +0.173 C 
ATOM     20  C   GLN A   3      -0.185  -0.624 -10.064  1.00  0.00    +0.262 C 
ATOM     21  O   GLN A   3       0.598  -1.557 -10.259  1.00  0.00    -0.271 OA
ATOM     22  CB  GLN A   3      -1.984  -1.826  -8.736  1.00  0.00    +0.041 C 
ATOM     23  CG  GLN A   3      -1.919  -1.070  -7.407  1.00  0.00    +0.091 C 
ATOM     24  CD  GLN A   3      -3.264  -0.842  -6.765  1.00  0.00    +0.261 C 
ATOM     25  OE1 GLN A   3      -3.938   0.139  -7.060  1.00  0.00    -0.272 OA
ATOM     26  NE2 GLN A   3      -3.701  -1.708  -5.878  1.00  0.00    -0.088 N 
ATOM     27  N   ALA A   4       0.210   0.636  -9.892  1.00  0.00    -0.196 N 
ATOM     28  CA  ALA A   4       1.440   0.944  -9.182  1.00  0.00    +0.173 C 
ATOM     29  C   ALA A   4       1.304   0.549  -7.706  1.00  0.00    +0.262 C 
ATOM     30  O   ALA A   4       0.279   0.775  -7.074  1.00  0.00    -0.271 OA
ATOM     31  CB  ALA A   4       1.719   2.448  -9.297  1.00  0.00    +0.033 C 
ATOM     32  N   VAL A   5       2.395   0.095  -7.112  1.00  0.00    -0.196 N 
ATOM     33  CA  VAL A   5       2.832   0.715  -5.861  1.00  0.00    +0.173 C 
ATOM     34  C   VAL A   5       3.532   2.032  -6.204  1.00  0.00    +0.262 C 
ATOM     35  O   VAL A   5       4.320   2.094  -7.151  1.00  0.00    -0.271 OA
ATOM     36  CB  VAL A   5       3.784  -0.209  -5.084  1.00  0.00    +0.029 C 
ATOM     37  CG1 VAL A   5       3.177  -1.604  -4.908  1.00  0.00    +0.002 C 
ATOM     38  CG2 VAL A   5       5.153  -0.364  -5.758  1.00  0.00    +0.002 C 
ATOM     39  N   ASN A   6       3.299   3.076  -5.414  1.00  0.00    -0.196 N 
ATOM     40  CA  ASN A   6       4.337   4.085  -5.169  1.00  0.00    +0.182 C 
ATOM     41  C   ASN A   6       5.219   3.697  -3.980  1.00  0.00    +0.262 C 
ATOM     42  O   ASN A   6       6.237   4.348  -3.737  1.00  0.00    -0.271 OA
ATOM     43  CB  ASN A   6       3.686   5.449  -4.903  1.00  0.00    +0.120 C 
ATOM     44  CG  ASN A   6       3.119   6.057  -6.164  1.00  0.00    +0.263 C 
ATOM     45  OD1 ASN A   6       1.977   5.820  -6.534  1.00  0.00    -0.272 OA
ATOM     46  ND2 ASN A   6       3.896   6.858  -6.859  1.00  0.00    -0.088 N 
ATOM     47  N   ALA A   7       4.787   2.694  -3.207  1.00  0.00    -0.196 N 
ATOM     48  CA  ALA A   7       5.114   2.597  -1.798  1.00  0.00    +0.173 C 
ATOM     49  C   ALA A   7       6.620   2.616  -1.552  1.00  0.00    +0.262 C 
ATOM     50  O   ALA A   7       7.387   1.921  -2.224  1.00  0.00    -0.271 OA
ATOM     51  CB  ALA A   7       4.483   1.331  -1.206  1.00  0.00    +0.033 C 
ATOM     52  N   LEU A   8       7.008   3.356  -0.519  1.00  0.00    -0.196 N 
ATOM     53  CA  LEU A   8       8.028   2.889   0.404  1.00  0.00    +0.173 C 
ATOM     54  C   LEU A   8       7.454   2.899   1.817  1.00  0.00    +0.262 C 
ATOM     55  O   LEU A   8       6.944   3.920   2.286  1.00  0.00    -0.271 OA
ATOM     56  CB  LEU A   8       9.302   3.743   0.357  1.00  0.00    +0.031 C 
ATOM     57  CG  LEU A   8      10.143   3.616  -0.923  1.00  0.00    +0.002 C 
ATOM     58  CD1 LEU A   8      11.596   3.974  -0.618  1.00  0.00    +0.000 C 
ATOM     59  CD2 LEU A   8       9.722   4.624  -1.988  1.00  0.00    +0.000 C 
ATOM     60  N   LEU A   9       7.627   1.774   2.505  1.00  0.00    -0.196 N 
ATOM     61  CA  LEU A   9       8.052   1.816   3.895  1.00  0.00    +0.173 C 
ATOM     62  C   LEU A   9       9.566   1.899   3.940  1.00  0.00    +0.262 C 
ATOM     63  O   LEU A   9      10.267   1.106   3.307  1.00  0.00    -0.271 OA
ATOM     64  CB  LEU A   9       7.572   0.578   4.665  1.00  0.00    +0.031 C 
ATOM     65  CG  LEU A   9       6.069   0.554   5.003  1.00  0.00    +0.002 C 
ATOM     66  CD1 LEU A   9       5.272   1.771   4.531  1.00  0.00    +0.000 C 
ATOM     67  CD2 LEU A   9       5.869   0.557   6.516  1.00  0.00    +0.000 C 
ATOM     68  N   VAL A  10      10.049   2.830   4.752  1.00  0.00    -0.196 N 
ATOM     69  CA  VAL A  10      11.303   2.642   5.459  1.00  0.00    +0.173 C 
ATOM     70  C   VAL A  10      11.002   1.946   6.794  1.00  0.00    +0.262 C 
ATOM     71  O   VAL A  10      10.054   2.321   7.486  1.00  0.00    -0.271 OA
ATOM     72  CB  VAL A  10      12.089   3.933   5.714  1.00  0.00    +0.029 C 
ATOM     73  CG1 VAL A  10      13.583   3.694   5.459  1.00  0.00    +0.002 C 
ATOM     74  CG2 VAL A  10      11.626   5.074   4.807  1.00  0.00    +0.002 C 
ATOM     75  N   PHE A  11      11.785   0.952   7.190  1.00  0.00    -0.196 N 
ATOM     76  CA  PHE A  11      12.634   0.181   6.282  1.00  0.00    +0.177 C 
ATOM     77  C   PHE A  11      11.840  -0.995   5.701  1.00  0.00    +0.262 C 
ATOM     78  O   PHE A  11      11.321  -1.834   6.437  1.00  0.00    -0.271 OA
ATOM     79  CB  PHE A  11      13.931  -0.235   6.974  1.00  0.00    +0.057 C 
ATOM     80  CG  PHE A  11      14.123  -1.726   7.043  1.00  0.00    -0.020 A 
ATOM     81  CD1 PHE A  11      14.849  -2.397   6.048  1.00  0.00    -0.004 A 
ATOM     82  CE1 PHE A  11      14.961  -3.795   6.090  1.00  0.00    -0.000 A 
ATOM     83  CD2 PHE A  11      13.523  -2.443   8.090  1.00  0.00    -0.004 A 
ATOM     84  CE2 PHE A  11      13.635  -3.839   8.132  1.00  0.00    -0.000 A 
ATOM     85  CZ  PHE A  11      14.355  -4.514   7.134  1.00  0.00    -0.000 A 
ATOM     86  N   PHE A  12      11.814  -1.076   4.375  1.00  0.00    -0.196 N 
ATOM     87  CA  PHE A  12      12.477  -2.172   3.678  1.00  0.00    +0.177 C 
ATOM     88  C   PHE A  12      13.702  -1.637   2.940  1.00  0.00    +0.262 C 
ATOM     89  O   PHE A  12      13.678  -0.522   2.408  1.00  0.00    -0.271 OA
ATOM     90  CB  PHE A  12      11.542  -2.846   2.671  1.00  0.00    +0.057 C 
ATOM     91  CG  PHE A  12      10.127  -3.016   3.163  1.00  0.00    -0.020 A 
ATOM     92  CD1 PHE A  12       9.879  -3.593   4.420  1.00  0.00    -0.004 A 
ATOM     93  CE1 PHE A  12       8.565  -3.701   4.893  1.00  0.00    -0.000 A 
ATOM     94  CD2 PHE A  12       9.059  -2.567   2.370  1.00  0.00    -0.004 A 
ATOM     95  CE2 PHE A  12       7.743  -2.694   2.836  1.00  0.00    -0.000 A 
ATOM     96  CZ  PHE A  12       7.496  -3.254   4.100  1.00  0.00    -0.000 A 
ATOM     97  N   ALA A  13      14.734  -2.472   2.845  1.00  0.00    -0.196 N 
ATOM     98  CA  ALA A  13      15.511  -2.568   1.624  1.00  0.00    +0.173 C 
ATOM     99  C   ALA A  13      14.716  -3.381   0.596  1.00  0.00    +0.262 C 
ATOM    100  O   ALA A  13      14.521  -4.591   0.754  1.00  0.00    -0.271 OA
ATOM    101  CB  ALA A  13      16.859  -3.236   1.912  1.00  0.00    +0.033 C 
ATOM    102  N   GLY A  14      14.336  -2.710  -0.484  1.00  0.00    -0.194 N 
ATOM    103  CA  GLY A  14      14.267  -3.335  -1.798  1.00  0.00    +0.201 C 
ATOM    104  C   GLY A  14      12.945  -4.022  -2.091  1.00  0.00    +0.264 C 
ATOM    105  O   GLY A  14      12.056  -4.115  -1.242  1.00  0.00    -0.271 OA
ATOM    106  N   SER A  15      12.797  -4.455  -3.339  1.00  0.00    -0.194 N 
ATOM    107  CA  SER A  15      11.498  -4.850  -3.870  1.00  0.00    +0.205 C 
ATOM    108  C   SER A  15      10.971  -6.130  -3.216  1.00  0.00    +0.264 C 
ATOM    109  O   SER A  15      11.737  -7.050  -2.908  1.00  0.00    -0.271 OA
ATOM    110  CB  SER A  15      11.599  -4.998  -5.391  1.00  0.00    +0.213 C 
ATOM    111  OG  SER A  15      12.251  -6.202  -5.752  1.00  0.00    -0.218 OA
ATOM    112  N   SER A  16       9.647  -6.220  -3.079  1.00  0.00    -0.194 N 
ATOM    113  CA  SER A  16       8.963  -7.498  -3.309  1.00  0.00    +0.205 C 
ATOM    114  C   SER A  16       9.012  -7.877  -4.792  1.00  0.00    +0.264 C 
ATOM    115  O   SER A  16       8.988  -9.051  -5.155  1.00  0.00    -0.271 OA
ATOM    116  CB  SER A  16       7.498  -7.399  -2.865  1.00  0.00    +0.213 C 
ATOM    117  OG  SER A  16       6.740  -6.524  -3.669  1.00  0.00    -0.218 OA
ATOM    118  N   ASP A  17       9.043  -6.859  -5.644  1.00  0.00    -0.196 N 
ATOM    119  CA  ASP A  17       8.318  -6.846  -6.908  1.00  0.00    +0.184 C 
ATOM    120  C   ASP A  17       8.969  -7.711  -7.976  1.00  0.00    +0.262 C 
ATOM    121  O   ASP A  17       8.309  -8.112  -8.936  1.00  0.00    -0.271 OA
ATOM    122  CB  ASP A  17       8.213  -5.399  -7.432  1.00  0.00    +0.145 C 
ATOM    123  CG  ASP A  17       7.978  -4.315  -6.370  1.00  0.00    +0.367 C 
ATOM    124  OD1 ASP A  17       7.653  -4.609  -5.208  1.00  0.00    -0.246 OA
ATOM    125  OD2 ASP A  17       8.172  -3.123  -6.675  1.00  0.00    -0.246 OA
ATOM    126  N   ALA A  18      10.271  -7.947  -7.833  1.00  0.00    -0.196 N 
ATOM    127  CA  ALA A  18      11.141  -8.244  -8.953  1.00  0.00    +0.173 C 
ATOM    128  C   ALA A  18      11.841  -9.586  -8.788  1.00  0.00    +0.262 C 
ATOM    129  O   ALA A  18      12.541  -9.837  -7.807  1.00  0.00    -0.271 OA
ATOM    130  CB  ALA A  18      12.158  -7.110  -9.103  1.00  0.00    +0.033 C 
ATOM    131  N   ILE A  19      11.722 -10.406  -9.816  1.00  0.00    -0.196 N 
ATOM    132  CA  ILE A  19      12.630 -11.509 -10.113  1.00  0.00    +0.173 C 
ATOM    133  C   ILE A  19      13.260 -11.252 -11.471  1.00  0.00    +0.262 C 
ATOM    134  O   ILE A  19      12.691 -10.562 -12.322  1.00  0.00    -0.271 OA
ATOM    135  CB  ILE A  19      11.960 -12.892 -10.081  1.00  0.00    +0.029 C 
ATOM    136  CG1 ILE A  19      10.428 -12.839  -9.946  1.00  0.00    +0.002 C 
ATOM    137  CG2 ILE A  19      12.554 -13.714  -8.929  1.00  0.00    +0.002 C 
ATOM    138  CD1 ILE A  19       9.721 -12.073 -11.080  1.00  0.00    +0.000 C 
ATOM    139  N   ARG A  20      14.478 -11.764 -11.630  1.00  0.00    -0.196 N 
ATOM    140  CA  ARG A  20      15.592 -10.915 -12.060  1.00  0.00    +0.173 C 
ATOM    141  C   ARG A  20      15.381 -10.272 -13.423  1.00  0.00    +0.262 C 
ATOM    142  O   ARG A  20      15.559  -9.065 -13.581  1.00  0.00    -0.271 OA
ATOM    143  CB  ARG A  20      16.888 -11.759 -12.033  1.00  0.00    +0.033 C 
ATOM    144  CG  ARG A  20      18.084 -10.996 -11.446  1.00  0.00    +0.029 C 
ATOM    145  CD  ARG A  20      18.860 -11.818 -10.409  1.00  0.00    +0.129 C 
ATOM    146  NE  ARG A  20      19.751 -12.806 -11.031  1.00  0.00    -0.234 NA
ATOM    147  CZ  ARG A  20      20.528 -13.640 -10.366  1.00  0.00    +0.284 C 
ATOM    148  NH1 ARG A  20      21.180 -13.303  -9.286  1.00  0.00    -0.104 N 
ATOM    149  NH2 ARG A  20      20.631 -14.866 -10.788  1.00  0.00    -0.104 N 
ATOM    150  N   ARG A  21      15.046 -11.117 -14.393  1.00  0.00    -0.194 N 
ATOM    151  CA  ARG A  21      15.872 -11.301 -15.594  1.00  0.00    +0.198 C 
ATOM    152  C   ARG A  21      15.206 -10.744 -16.838  1.00  0.00    +0.384 C 
ATOM    153  O   ARG A  21      15.759  -9.805 -17.439  1.00  0.00    -0.244 OA
ATOM    154  CB  ARG A  21      16.153 -12.808 -15.733  1.00  0.00    +0.035 C 
ATOM    155  CG  ARG A  21      16.620 -13.234 -17.132  1.00  0.00    +0.029 C 
ATOM    156  CD  ARG A  21      16.398 -14.728 -17.351  1.00  0.00    +0.129 C 
ATOM    157  NE  ARG A  21      17.176 -15.172 -18.513  1.00  0.00    -0.234 NA
ATOM    158  CZ  ARG A  21      17.249 -16.431 -18.879  1.00  0.00    +0.284 C 
ATOM    159  NH1 ARG A  21      16.272 -17.029 -19.498  1.00  0.00    -0.104 N 
ATOM    160  NH2 ARG A  21      18.338 -17.096 -18.630  1.00  0.00    -0.104 N 
ATOM    161  OXT ARG A  21      14.168 -11.292 -17.260  1.00  0.00    -0.244 OA
ATOM    162  H   MET A   1      -4.968   5.186 -11.045  1.00  0.00    +0.000 HD
ATOM    163  H   MET A   1      -4.277   4.112  -9.976  1.00  0.00    +0.000 HD
ATOM    164  H   LYS A   2      -3.960   1.652 -13.609  1.00  0.00    +0.000 HD
ATOM    165  H   LYS A   2      -6.416  -5.178 -15.563  1.00  0.00    +0.000 HD
ATOM    166  H   LYS A   2      -7.777  -4.634 -14.771  1.00  0.00    +0.000 HD
ATOM    167  H   GLN A   3      -2.490  -2.400 -11.198  1.00  0.00    +0.000 HD
ATOM    168  H   GLN A   3      -3.154  -2.493  -5.646  1.00  0.00    +0.000 HD
ATOM    169  H   GLN A   3      -4.575  -1.571  -5.446  1.00  0.00    +0.000 HD
ATOM    170  H   ALA A   4      -0.339   1.370 -10.251  1.00  0.00    +0.000 HD
ATOM    171  H   VAL A   5       2.905  -0.649  -7.506  1.00  0.00    +0.000 HD
ATOM    172  H   ASN A   6       2.417   3.174  -4.987  1.00  0.00    +0.000 HD
ATOM    173  H   ASN A   6       3.561   7.273  -7.687  1.00  0.00    +0.000 HD
ATOM    174  H   ASN A   6       4.813   7.043  -6.552  1.00  0.00    +0.000 HD
ATOM    175  H   ALA A   7       4.225   1.994  -3.611  1.00  0.00    +0.000 HD
ATOM    176  H   LEU A   8       6.596   4.239  -0.376  1.00  0.00    +0.000 HD
ATOM    177  H   LEU A   9       7.466   0.906   2.070  1.00  0.00    +0.000 HD
ATOM    178  H   VAL A  10       9.546   3.667   4.878  1.00  0.00    +0.000 HD
ATOM    179  H   PHE A  11      11.796   0.720   8.147  1.00  0.00    +0.000 HD
ATOM    180  H   PHE A  12      11.341  -0.386   3.856  1.00  0.00    +0.000 HD
ATOM    181  H   ALA A  13      14.974  -3.034   3.617  1.00  0.00    +0.000 HD
ATOM    182  H   GLY A  14      14.093  -1.760  -0.394  1.00  0.00    +0.000 HD
ATOM    183  H   SER A  15      13.588  -4.511  -3.922  1.00  0.00    +0.000 HD
ATOM    184  H   SER A  15      11.745  -6.958  -5.415  1.00  0.00    +0.000 HD
ATOM    185  H   SER A  16       9.126  -5.425  -2.822  1.00  0.00    +0.000 HD
ATOM    186  H   SER A  16       6.728  -6.852  -4.582  1.00  0.00    +0.000 HD
ATOM    187  H   ASP A  17       9.585  -6.071  -5.409  1.00  0.00    +0.000 HD
ATOM    188  H   ASP A  17       7.506  -5.505  -4.975  1.00  0.00    +0.000 HD
ATOM    189  H   ALA A  18      10.659  -7.919  -6.929  1.00  0.00    +0.000 HD
ATOM    190  H   ILE A  19      10.964 -10.263 -10.428  1.00  0.00    +0.000 HD
ATOM    191  H   ARG A  20      14.632 -12.721 -11.457  1.00  0.00    +0.000 HD
ATOM    192  H   ARG A  20      21.121 -12.382  -8.943  1.00  0.00    +0.000 HD
ATOM    193  H   ARG A  20      21.730 -13.970  -8.815  1.00  0.00    +0.000 HD
ATOM    194  H   ARG A  20      20.151 -15.149 -11.599  1.00  0.00    +0.000 HD
ATOM    195  H   ARG A  20      21.189 -15.511 -10.296  1.00  0.00    +0.000 HD
ATOM    196  H   ARG A  21      14.215 -11.638 -14.303  1.00  0.00    +0.000 HD
ATOM    197  H   ARG A  21      16.360 -17.974 -19.758  1.00  0.00    +0.000 HD
ATOM    198  H   ARG A  21      15.446 -16.536 -19.706  1.00  0.00    +0.000 HD
ATOM    199  H   ARG A  21      18.410 -18.041 -18.897  1.00  0.00    +0.000 HD
ATOM    200  H   ARG A  21      19.091 -16.655 -18.174  1.00  0.00    +0.000 HD
ATOM    201  H   ARG A  21      13.781 -11.997 -16.778  1.00  0.00    +0.000 HD
ENDROOT
TORSDOF 0
