REMARK  Name = /var/folders/yp/yjbh3p597675h2qddgqr02y00000gn/T/tmpoicx_xcs.pdb
REMARK     285 UNITARY VALUES FOR THE UNIT CELL AUTOMATICALLY SET
REMARK     285 BY MDANALYSIS PDBWRITER BECAUSE UNIT CELL INFORMATION
REMARK     285 WAS MISSING.
REMARK     285 PROTEIN DATA BANK CONVENTIONS REQUIRE THAT
REMARK     285 CRYST1 RECORD IS INCLUDED, BUT THE VALUES ON
REMARK     285 THIS RECORD ARE MEANINGLESS.
REMARK     285 UNITARY VALUES FOR THE UNIT CELL AUTOMATICALLY SET
REMARK     285 BY MDANALYSIS PDBWRITER BECAUSE UNIT CELL INFORMATION
REMARK     285 WAS MISSING.
REMARK     285 PROTEIN DATA BANK CONVENTIONS REQUIRE THAT
REMARK     285 CRYST1 RECORD IS INCLUDED, BUT THE VALUES ON
REMARK     285 THIS RECORD ARE MEANINGLESS.
REMARK                            x       y       z     vdW  Elec       q    Type
REMARK                         _______ _______ _______ _____ _____    ______ ____
ROOT
ATOM      1  N   MET A   1     -15.222  17.536   3.892  1.00  0.00    -0.123 NA
ATOM      2  CA  MET A   1     -15.887  17.696   2.602  1.00  0.00    +0.170 C 
ATOM      3  C   MET A   1     -17.290  17.112   2.639  1.00  0.00    +0.259 C 
ATOM      4  O   MET A   1     -17.505  16.038   3.197  1.00  0.00    -0.272 OA
ATOM      5  CB  MET A   1     -15.089  17.029   1.494  1.00  0.00    +0.040 C 
ATOM      6  CG  MET A   1     -15.583  17.369   0.097  1.00  0.00    +0.060 C 
ATOM      7  SD  MET A   1     -14.388  16.934  -1.191  1.00  0.00    -0.139 S 
ATOM      8  CE  MET A   1     -14.067  18.545  -1.900  1.00  0.00    +0.069 C 
ATOM      9  N   LYS A   2     -18.246  17.818   2.044  1.00  0.00    -0.197 N 
ATOM     10  CA  LYS A   2     -19.646  17.411   2.109  1.00  0.00    +0.173 C 
ATOM     11  C   LYS A   2     -20.239  17.265   0.716  1.00  0.00    +0.262 C 
ATOM     12  O   LYS A   2     -20.134  18.175  -0.105  1.00  0.00    -0.271 OA
ATOM     13  CB  LYS A   2     -20.466  18.413   2.906  1.00  0.00    +0.031 C 
ATOM     14  CG  LYS A   2     -21.808  17.875   3.375  1.00  0.00    +0.009 C 
ATOM     15  CD  LYS A   2     -22.241  18.505   4.688  1.00  0.00    +0.049 C 
ATOM     16  CE  LYS A   2     -21.845  17.690   5.833  1.00  0.00    +0.096 C 
ATOM     17  NZ  LYS A   2     -22.408  17.748   7.036  1.00  0.00    -0.151 NA
ATOM     18  N   GLN A   3     -20.862  16.121   0.450  1.00  0.00    -0.196 N 
ATOM     19  CA  GLN A   3     -22.047  16.081  -0.403  1.00  0.00    +0.173 C 
ATOM     20  C   GLN A   3     -23.300  16.421   0.387  1.00  0.00    +0.262 C 
ATOM     21  O   GLN A   3     -23.569  15.814   1.422  1.00  0.00    -0.271 OA
ATOM     22  CB  GLN A   3     -22.206  14.712  -1.045  1.00  0.00    +0.041 C 
ATOM     23  CG  GLN A   3     -23.312  14.649  -2.086  1.00  0.00    +0.091 C 
ATOM     24  CD  GLN A   3     -23.510  13.251  -2.649  1.00  0.00    +0.261 C 
ATOM     25  OE1 GLN A   3     -24.630  12.720  -2.654  1.00  0.00    -0.272 OA
ATOM     26  NE2 GLN A   3     -22.426  12.646  -3.128  1.00  0.00    -0.088 N 
ATOM     27  N   ALA A   4     -24.065  17.394  -0.100  1.00  0.00    -0.196 N 
ATOM     28  CA  ALA A   4     -25.123  17.117  -1.067  1.00  0.00    +0.173 C 
ATOM     29  C   ALA A   4     -24.542  16.705  -2.411  1.00  0.00    +0.262 C 
ATOM     30  O   ALA A   4     -23.433  17.103  -2.760  1.00  0.00    -0.271 OA
ATOM     31  CB  ALA A   4     -26.016  18.332  -1.252  1.00  0.00    +0.033 C 
ATOM     32  N   VAL A   5     -25.292  15.905  -3.164  1.00  0.00    -0.196 N 
ATOM     33  CA  VAL A   5     -25.456  16.144  -4.594  1.00  0.00    +0.173 C 
ATOM     34  C   VAL A   5     -26.448  17.273  -4.817  1.00  0.00    +0.262 C 
ATOM     35  O   VAL A   5     -27.255  17.577  -3.939  1.00  0.00    -0.271 OA
ATOM     36  CB  VAL A   5     -25.932  14.900  -5.326  1.00  0.00    +0.029 C 
ATOM     37  CG1 VAL A   5     -24.796  13.887  -5.465  1.00  0.00    +0.002 C 
ATOM     38  CG2 VAL A   5     -27.068  14.230  -4.556  1.00  0.00    +0.002 C 
ATOM     39  N   ASN A   6     -26.390  17.896  -5.990  1.00  0.00    -0.196 N 
ATOM     40  CA  ASN A   6     -27.544  18.603  -6.535  1.00  0.00    +0.182 C 
ATOM     41  C   ASN A   6     -28.523  17.645  -7.196  1.00  0.00    +0.262 C 
ATOM     42  O   ASN A   6     -28.123  16.786  -7.981  1.00  0.00    -0.271 OA
ATOM     43  CB  ASN A   6     -27.113  19.661  -7.537  1.00  0.00    +0.120 C 
ATOM     44  CG  ASN A   6     -26.630  20.937  -6.868  1.00  0.00    +0.263 C 
ATOM     45  OD1 ASN A   6     -27.153  22.020  -7.127  1.00  0.00    -0.272 OA
ATOM     46  ND2 ASN A   6     -25.625  20.810  -6.007  1.00  0.00    -0.088 N 
ATOM     47  N   ALA A   7     -29.806  17.792  -6.880  1.00  0.00    -0.196 N 
ATOM     48  CA  ALA A   7     -30.838  17.883  -7.909  1.00  0.00    +0.173 C 
ATOM     49  C   ALA A   7     -30.658  19.135  -8.753  1.00  0.00    +0.262 C 
ATOM     50  O   ALA A   7     -30.725  20.249  -8.239  1.00  0.00    -0.271 OA
ATOM     51  CB  ALA A   7     -32.224  17.886  -7.285  1.00  0.00    +0.033 C 
ATOM     52  N   LEU A   8     -30.430  18.950 -10.051  1.00  0.00    -0.196 N 
ATOM     53  CA  LEU A   8     -30.981  19.856 -11.055  1.00  0.00    +0.173 C 
ATOM     54  C   LEU A   8     -32.114  19.193 -11.820  1.00  0.00    +0.262 C 
ATOM     55  O   LEU A   8     -32.108  17.979 -12.017  1.00  0.00    -0.271 OA
ATOM     56  CB  LEU A   8     -29.900  20.298 -12.030  1.00  0.00    +0.031 C 
ATOM     57  CG  LEU A   8     -28.629  20.879 -11.409  1.00  0.00    +0.002 C 
ATOM     58  CD1 LEU A   8     -27.998  21.897 -12.352  1.00  0.00    +0.000 C 
ATOM     59  CD2 LEU A   8     -27.512  19.841 -11.406  1.00  0.00    +0.000 C 
ATOM     60  N   LEU A   9     -33.088  19.989 -12.252  1.00  0.00    -0.196 N 
ATOM     61  CA  LEU A   9     -33.958  19.597 -13.356  1.00  0.00    +0.173 C 
ATOM     62  C   LEU A   9     -33.328  19.950 -14.694  1.00  0.00    +0.262 C 
ATOM     63  O   LEU A   9     -33.067  19.072 -15.513  1.00  0.00    -0.271 OA
ATOM     64  CB  LEU A   9     -35.315  20.271 -13.239  1.00  0.00    +0.035 C 
ATOM     65  CG  LEU A   9     -36.376  19.514 -12.437  1.00  0.00    +0.021 C 
ATOM     66  CD1 LEU A   9     -37.029  20.441 -11.418  1.00  0.00    +0.004 C 
ATOM     67  CD2 LEU A   9     -35.720  18.533 -11.472  1.00  0.00    +0.004 C 
ATOM     68  N   VAL A  10     -33.086  21.239 -14.915  1.00  0.00    -0.196 N 
ATOM     69  CA  VAL A  10     -34.154  22.235 -14.855  1.00  0.00    +0.173 C 
ATOM     70  C   VAL A  10     -34.778  22.403 -16.230  1.00  0.00    +0.262 C 
ATOM     71  O   VAL A  10     -34.084  22.707 -17.198  1.00  0.00    -0.271 OA
ATOM     72  CB  VAL A  10     -33.647  23.579 -14.359  1.00  0.00    +0.029 C 
ATOM     73  CG1 VAL A  10     -34.767  24.356 -13.672  1.00  0.00    +0.002 C 
ATOM     74  CG2 VAL A  10     -32.520  23.384 -13.348  1.00  0.00    +0.002 C 
ATOM     75  N   PHE A  11     -36.090  22.204 -16.317  1.00  0.00    -0.196 N 
ATOM     76  CA  PHE A  11     -36.698  21.654 -17.526  1.00  0.00    +0.177 C 
ATOM     77  C   PHE A  11     -37.009  22.758 -18.523  1.00  0.00    +0.262 C 
ATOM     78  O   PHE A  11     -36.791  22.596 -19.724  1.00  0.00    -0.271 OA
ATOM     79  CB  PHE A  11     -37.970  20.893 -17.195  1.00  0.00    +0.057 C 
ATOM     80  CG  PHE A  11     -37.765  19.748 -16.249  1.00  0.00    -0.020 A 
ATOM     81  CD1 PHE A  11     -37.415  19.993 -14.927  1.00  0.00    -0.008 A 
ATOM     82  CE1 PHE A  11     -37.224  18.932 -14.050  1.00  0.00    -0.023 A 
ATOM     83  CD2 PHE A  11     -37.927  18.440 -16.694  1.00  0.00    -0.004 A 
ATOM     84  CE2 PHE A  11     -37.737  17.380 -15.817  1.00  0.00    -0.001 A 
ATOM     85  CZ  PHE A  11     -37.386  17.625 -14.496  1.00  0.00    -0.004 A 
ATOM     86  N   PHE A  12     -37.521  23.881 -18.029  1.00  0.00    -0.196 N 
ATOM     87  CA  PHE A  12     -38.768  24.439 -18.540  1.00  0.00    +0.177 C 
ATOM     88  C   PHE A  12     -38.509  25.311 -19.759  1.00  0.00    +0.262 C 
ATOM     89  O   PHE A  12     -39.335  25.374 -20.669  1.00  0.00    -0.271 OA
ATOM     90  CB  PHE A  12     -39.476  25.256 -17.473  1.00  0.00    +0.057 C 
ATOM     91  CG  PHE A  12     -39.485  24.610 -16.120  1.00  0.00    -0.020 A 
ATOM     92  CD1 PHE A  12     -38.749  25.166 -15.079  1.00  0.00    -0.004 A 
ATOM     93  CE1 PHE A  12     -38.755  24.566 -13.824  1.00  0.00    -0.000 A 
ATOM     94  CD2 PHE A  12     -40.228  23.456 -15.905  1.00  0.00    -0.004 A 
ATOM     95  CE2 PHE A  12     -40.235  22.856 -14.651  1.00  0.00    -0.000 A 
ATOM     96  CZ  PHE A  12     -39.499  23.412 -13.611  1.00  0.00    -0.000 A 
ATOM     97  N   ALA A  13     -37.362  25.982 -19.778  1.00  0.00    -0.196 N 
ATOM     98  CA  ALA A  13     -37.254  27.282 -20.435  1.00  0.00    +0.173 C 
ATOM     99  C   ALA A  13     -37.448  27.155 -21.936  1.00  0.00    +0.262 C 
ATOM    100  O   ALA A  13     -37.693  28.147 -22.620  1.00  0.00    -0.271 OA
ATOM    101  CB  ALA A  13     -35.903  27.919 -20.149  1.00  0.00    +0.033 C 
ATOM    102  N   GLY A  14     -37.339  25.933 -22.450  1.00  0.00    -0.194 N 
ATOM    103  CA  GLY A  14     -36.085  25.188 -22.381  1.00  0.00    +0.201 C 
ATOM    104  C   GLY A  14     -35.146  25.603 -23.503  1.00  0.00    +0.264 C 
ATOM    105  O   GLY A  14     -35.225  26.725 -24.000  1.00  0.00    -0.271 OA
ATOM    106  N   SER A  15     -34.256  24.698 -23.903  1.00  0.00    -0.194 N 
ATOM    107  CA  SER A  15     -33.425  24.917 -25.082  1.00  0.00    +0.205 C 
ATOM    108  C   SER A  15     -34.237  24.786 -26.361  1.00  0.00    +0.264 C 
ATOM    109  O   SER A  15     -35.254  24.092 -26.385  1.00  0.00    -0.271 OA
ATOM    110  CB  SER A  15     -32.267  23.934 -25.112  1.00  0.00    +0.213 C 
ATOM    111  OG  SER A  15     -32.679  22.689 -25.650  1.00  0.00    -0.218 OA
ATOM    112  N   SER A  16     -33.791  25.450 -27.422  1.00  0.00    -0.194 N 
ATOM    113  CA  SER A  16     -34.361  25.236 -28.748  1.00  0.00    +0.205 C 
ATOM    114  C   SER A  16     -34.049  23.841 -29.264  1.00  0.00    +0.264 C 
ATOM    115  O   SER A  16     -32.955  23.324 -29.041  1.00  0.00    -0.271 OA
ATOM    116  CB  SER A  16     -33.835  26.270 -29.731  1.00  0.00    +0.213 C 
ATOM    117  OG  SER A  16     -32.498  25.980 -30.099  1.00  0.00    -0.218 OA
ATOM    118  N   ASP A  17     -35.008  23.231 -29.953  1.00  0.00    -0.196 N 
ATOM    119  CA  ASP A  17     -34.703  22.171 -30.908  1.00  0.00    +0.184 C 
ATOM    120  C   ASP A  17     -34.328  22.750 -32.264  1.00  0.00    +0.262 C 
ATOM    121  O   ASP A  17     -33.517  22.173 -32.986  1.00  0.00    -0.271 OA
ATOM    122  CB  ASP A  17     -35.882  21.226 -31.069  1.00  0.00    +0.145 C 
ATOM    123  CG  ASP A  17     -36.301  20.570 -29.763  1.00  0.00    +0.367 C 
ATOM    124  OD1 ASP A  17     -37.345  19.883 -29.733  1.00  0.00    -0.246 OA
ATOM    125  OD2 ASP A  17     -35.580  20.743 -28.757  1.00  0.00    -0.246 OA
ATOM    126  N   ALA A  18     -34.920  23.890 -32.610  1.00  0.00    -0.196 N 
ATOM    127  CA  ALA A  18     -35.176  24.218 -34.008  1.00  0.00    +0.173 C 
ATOM    128  C   ALA A  18     -34.697  25.623 -34.335  1.00  0.00    +0.262 C 
ATOM    129  O   ALA A  18     -35.012  26.573 -33.620  1.00  0.00    -0.271 OA
ATOM    130  CB  ALA A  18     -36.658  24.102 -34.326  1.00  0.00    +0.033 C 
ATOM    131  N   ILE A  19     -33.936  25.758 -35.418  1.00  0.00    -0.196 N 
ATOM    132  CA  ILE A  19     -33.139  26.961 -35.642  1.00  0.00    +0.173 C 
ATOM    133  C   ILE A  19     -33.672  27.711 -36.851  1.00  0.00    +0.262 C 
ATOM    134  O   ILE A  19     -33.857  27.128 -37.918  1.00  0.00    -0.271 OA
ATOM    135  CB  ILE A  19     -31.669  26.637 -35.853  1.00  0.00    +0.029 C 
ATOM    136  CG1 ILE A  19     -31.141  25.761 -34.718  1.00  0.00    +0.002 C 
ATOM    137  CG2 ILE A  19     -30.846  27.921 -35.926  1.00  0.00    +0.002 C 
ATOM    138  CD1 ILE A  19     -29.643  25.508 -34.779  1.00  0.00    +0.000 C 
ATOM    139  N   ARG A  20     -33.919  29.008 -36.686  1.00  0.00    -0.196 N 
ATOM    140  CA  ARG A  20     -33.658  29.972 -37.751  1.00  0.00    +0.173 C 
ATOM    141  C   ARG A  20     -32.174  30.277 -37.859  1.00  0.00    +0.262 C 
ATOM    142  O   ARG A  20     -31.658  30.497 -38.955  1.00  0.00    -0.271 OA
ATOM    143  CB  ARG A  20     -34.425  31.263 -37.514  1.00  0.00    +0.033 C 
ATOM    144  CG  ARG A  20     -34.374  32.232 -38.684  1.00  0.00    +0.029 C 
ATOM    145  CD  ARG A  20     -35.225  33.466 -38.432  1.00  0.00    +0.129 C 
ATOM    146  NE  ARG A  20     -35.429  34.238 -39.654  1.00  0.00    -0.234 NA
ATOM    147  CZ  ARG A  20     -35.614  35.555 -39.698  1.00  0.00    +0.284 C 
ATOM    148  NH1 ARG A  20     -35.476  36.295 -38.602  1.00  0.00    -0.104 N 
ATOM    149  NH2 ARG A  20     -35.937  36.135 -40.851  1.00  0.00    -0.104 N 
ATOM    150  N   ARG A  21     -31.483  30.291 -36.723  1.00  0.00    -0.194 N 
ATOM    151  CA  ARG A  21     -30.387  31.231 -36.510  1.00  0.00    +0.198 C 
ATOM    152  C   ARG A  21     -29.046  30.514 -36.512  1.00  0.00    +0.384 C 
ATOM    153  O   ARG A  21     -28.042  31.064 -36.065  1.00  0.00    -0.244 OA
ATOM    154  CB  ARG A  21     -30.560  31.978 -35.198  1.00  0.00    +0.035 C 
ATOM    155  CG  ARG A  21     -31.661  33.024 -35.227  1.00  0.00    +0.029 C 
ATOM    156  CD  ARG A  21     -32.609  32.879 -34.047  1.00  0.00    +0.129 C 
ATOM    157  NE  ARG A  21     -32.031  33.424 -32.822  1.00  0.00    -0.234 NA
ATOM    158  CZ  ARG A  21     -32.622  33.403 -31.630  1.00  0.00    +0.284 C 
ATOM    159  NH1 ARG A  21     -33.819  32.845 -31.476  1.00  0.00    -0.104 N 
ATOM    160  NH2 ARG A  21     -32.010  33.949 -30.583  1.00  0.00    -0.104 N 
ATOM    161  OXT ARG A  21     -28.949  29.373 -36.962  1.00  0.00    -0.244 OA
ATOM    162  H   MET A   1     -15.775  17.991   4.619  1.00  0.00    +0.000 HD
ATOM    163  H   MET A   1     -14.296  17.962   3.852  1.00  0.00    +0.000 HD
ATOM    164  H   LYS A   2     -18.004  18.633   1.548  1.00  0.00    +0.000 HD
ATOM    165  H   LYS A   2     -23.149  18.375   7.203  1.00  0.00    +0.000 HD
ATOM    166  H   GLN A   3     -20.517  15.283   0.836  1.00  0.00    +0.000 HD
ATOM    167  H   GLN A   3     -21.555  13.105  -3.105  1.00  0.00    +0.000 HD
ATOM    168  H   GLN A   3     -22.495  11.740  -3.507  1.00  0.00    +0.000 HD
ATOM    169  H   ALA A   4     -23.915  18.321   0.198  1.00  0.00    +0.000 HD
ATOM    170  H   VAL A   5     -25.746  15.137  -2.748  1.00  0.00    +0.000 HD
ATOM    171  H   ASN A   6     -25.549  17.881  -6.503  1.00  0.00    +0.000 HD
ATOM    172  H   ASN A   6     -25.270  21.603  -5.544  1.00  0.00    +0.000 HD
ATOM    173  H   ASN A   6     -25.236  19.924  -5.832  1.00  0.00    +0.000 HD
ATOM    174  H   ALA A   7     -30.065  17.841  -5.931  1.00  0.00    +0.000 HD
ATOM    175  H   LEU A   8     -29.879  18.187 -10.340  1.00  0.00    +0.000 HD
ATOM    176  H   LEU A   9     -33.226  20.862 -11.818  1.00  0.00    +0.000 HD
ATOM    177  H   VAL A  10     -32.169  21.527 -15.124  1.00  0.00    +0.000 HD
ATOM    178  H   PHE A  11     -36.664  22.433 -15.551  1.00  0.00    +0.000 HD
ATOM    179  H   PHE A  12     -37.047  24.347 -17.302  1.00  0.00    +0.000 HD
ATOM    180  H   ALA A  13     -36.569  25.596 -19.340  1.00  0.00    +0.000 HD
ATOM    181  H   GLY A  14     -38.120  25.521 -22.886  1.00  0.00    +0.000 HD
ATOM    182  H   SER A  15     -34.157  23.862 -23.392  1.00  0.00    +0.000 HD
ATOM    183  H   SER A  15     -33.383  22.316 -25.097  1.00  0.00    +0.000 HD
ATOM    184  H   SER A  16     -33.060  26.101 -27.311  1.00  0.00    +0.000 HD
ATOM    185  H   SER A  16     -31.934  25.995 -29.310  1.00  0.00    +0.000 HD
ATOM    186  H   ASP A  17     -35.945  23.501 -29.816  1.00  0.00    +0.000 HD
ATOM    187  H   ASP A  17     -34.804  21.265 -28.820  1.00  0.00    +0.000 HD
ATOM    188  H   ALA A  18     -35.190  24.525 -31.908  1.00  0.00    +0.000 HD
ATOM    189  H   ILE A  19     -33.909  25.032 -36.082  1.00  0.00    +0.000 HD
ATOM    190  H   ARG A  20     -34.284  29.324 -35.828  1.00  0.00    +0.000 HD
ATOM    191  H   ARG A  20     -35.615  37.269 -38.645  1.00  0.00    +0.000 HD
ATOM    192  H   ARG A  20     -35.236  35.869 -37.748  1.00  0.00    +0.000 HD
ATOM    193  H   ARG A  20     -36.074  37.109 -40.890  1.00  0.00    +0.000 HD
ATOM    194  H   ARG A  20     -36.038  35.591 -41.665  1.00  0.00    +0.000 HD
ATOM    195  H   ARG A  21     -31.715  29.654 -36.010  1.00  0.00    +0.000 HD
ATOM    196  H   ARG A  21     -34.248  32.836 -30.589  1.00  0.00    +0.000 HD
ATOM    197  H   ARG A  21     -34.277  32.441 -32.247  1.00  0.00    +0.000 HD
ATOM    198  H   ARG A  21     -32.443  33.937 -29.699  1.00  0.00    +0.000 HD
ATOM    199  H   ARG A  21     -31.123  34.364 -30.693  1.00  0.00    +0.000 HD
ATOM    200  H   ARG A  21     -29.706  28.939 -37.307  1.00  0.00    +0.000 HD
ENDROOT
TORSDOF 0
