REMARK  Name = /var/folders/yp/yjbh3p597675h2qddgqr02y00000gn/T/tmpcdjhs8dv.pdb
REMARK     285 UNITARY VALUES FOR THE UNIT CELL AUTOMATICALLY SET
REMARK     285 BY MDANALYSIS PDBWRITER BECAUSE UNIT CELL INFORMATION
REMARK     285 WAS MISSING.
REMARK     285 PROTEIN DATA BANK CONVENTIONS REQUIRE THAT
REMARK     285 CRYST1 RECORD IS INCLUDED, BUT THE VALUES ON
REMARK     285 THIS RECORD ARE MEANINGLESS.
REMARK     285 UNITARY VALUES FOR THE UNIT CELL AUTOMATICALLY SET
REMARK     285 BY MDANALYSIS PDBWRITER BECAUSE UNIT CELL INFORMATION
REMARK     285 WAS MISSING.
REMARK     285 PROTEIN DATA BANK CONVENTIONS REQUIRE THAT
REMARK     285 CRYST1 RECORD IS INCLUDED, BUT THE VALUES ON
REMARK     285 THIS RECORD ARE MEANINGLESS.
REMARK                            x       y       z     vdW  Elec       q    Type
REMARK                         _______ _______ _______ _____ _____    ______ ____
REMARK  Name = /var/folders/yp/yjbh3p597675h2qddgqr02y00000gn/T/tmpcdjhs8dv.pdb
REMARK     285 UNITARY VALUES FOR THE UNIT CELL AUTOMATICALLY SET
REMARK     285 BY MDANALYSIS PDBWRITER BECAUSE UNIT CELL INFORMATION
REMARK     285 WAS MISSING.
REMARK     285 PROTEIN DATA BANK CONVENTIONS REQUIRE THAT
REMARK     285 CRYST1 RECORD IS INCLUDED, BUT THE VALUES ON
REMARK     285 THIS RECORD ARE MEANINGLESS.
REMARK     285 UNITARY VALUES FOR THE UNIT CELL AUTOMATICALLY SET
REMARK     285 BY MDANALYSIS PDBWRITER BECAUSE UNIT CELL INFORMATION
REMARK     285 WAS MISSING.
REMARK     285 PROTEIN DATA BANK CONVENTIONS REQUIRE THAT
REMARK     285 CRYST1 RECORD IS INCLUDED, BUT THE VALUES ON
REMARK     285 THIS RECORD ARE MEANINGLESS.
REMARK                            x       y       z     vdW  Elec       q    Type
REMARK                         _______ _______ _______ _____ _____    ______ ____
ROOT
ATOM      1  N   MET A   1      -7.725   8.923 -10.474  1.00  0.00    -0.123 NA
ATOM      2  CA  MET A   1      -8.225   9.023 -11.842  1.00  0.00    +0.170 C 
ATOM      3  C   MET A   1      -7.090   8.888 -12.845  1.00  0.00    +0.259 C 
ATOM      4  O   MET A   1      -5.985   9.372 -12.607  1.00  0.00    -0.272 OA
ATOM      5  CB  MET A   1      -8.942  10.344 -12.062  1.00  0.00    +0.040 C 
ATOM      6  CG  MET A   1      -8.009  11.542 -12.128  1.00  0.00    +0.060 C 
ATOM      7  SD  MET A   1      -8.884  13.093 -12.452  1.00  0.00    -0.139 S 
ATOM      8  CE  MET A   1     -10.575  12.580 -12.173  1.00  0.00    +0.069 C 
ATOM      9  N   LYS A   2      -7.363   8.230 -13.969  1.00  0.00    -0.197 N 
ATOM     10  CA  LYS A   2      -6.365   8.086 -15.025  1.00  0.00    +0.173 C 
ATOM     11  C   LYS A   2      -6.054   9.426 -15.669  1.00  0.00    +0.262 C 
ATOM     12  O   LYS A   2      -6.963  10.186 -16.000  1.00  0.00    -0.271 OA
ATOM     13  CB  LYS A   2      -6.841   7.109 -16.088  1.00  0.00    +0.031 C 
ATOM     14  CG  LYS A   2      -5.776   6.744 -17.109  1.00  0.00    +0.009 C 
ATOM     15  CD  LYS A   2      -6.383   6.178 -18.381  1.00  0.00    +0.049 C 
ATOM     16  CE  LYS A   2      -7.062   7.211 -19.160  1.00  0.00    +0.096 C 
ATOM     17  NZ  LYS A   2      -6.860   7.441 -20.454  1.00  0.00    -0.151 NA
ATOM     18  N   GLN A   3      -4.769   9.717 -15.850  1.00  0.00    -0.196 N 
ATOM     19  CA  GLN A   3      -4.355  10.931 -16.549  1.00  0.00    +0.173 C 
ATOM     20  C   GLN A   3      -4.610  10.817 -18.042  1.00  0.00    +0.262 C 
ATOM     21  O   GLN A   3      -4.760   9.715 -18.568  1.00  0.00    -0.271 OA
ATOM     22  CB  GLN A   3      -2.882  11.220 -16.307  1.00  0.00    +0.041 C 
ATOM     23  CG  GLN A   3      -2.598  11.861 -14.958  1.00  0.00    +0.091 C 
ATOM     24  CD  GLN A   3      -1.338  11.320 -14.303  1.00  0.00    +0.261 C 
ATOM     25  OE1 GLN A   3      -0.304  11.143 -14.962  1.00  0.00    -0.272 OA
ATOM     26  NE2 GLN A   3      -1.413  11.055 -13.001  1.00  0.00    -0.088 N 
ATOM     27  N   ALA A   4      -4.661  11.955 -18.727  1.00  0.00    -0.196 N 
ATOM     28  CA  ALA A   4      -5.935  12.571 -19.085  1.00  0.00    +0.173 C 
ATOM     29  C   ALA A   4      -6.775  11.634 -19.937  1.00  0.00    +0.262 C 
ATOM     30  O   ALA A   4      -6.248  10.713 -20.559  1.00  0.00    -0.271 OA
ATOM     31  CB  ALA A   4      -5.714  13.876 -19.833  1.00  0.00    +0.033 C 
ATOM     32  N   VAL A   5      -8.084  11.868 -19.969  1.00  0.00    -0.196 N 
ATOM     33  CA  VAL A   5      -8.789  12.075 -21.232  1.00  0.00    +0.173 C 
ATOM     34  C   VAL A   5      -8.433  13.438 -21.802  1.00  0.00    +0.262 C 
ATOM     35  O   VAL A   5      -8.205  14.387 -21.053  1.00  0.00    -0.271 OA
ATOM     36  CB  VAL A   5     -10.296  11.973 -21.063  1.00  0.00    +0.029 C 
ATOM     37  CG1 VAL A   5     -10.649  11.010 -19.932  1.00  0.00    +0.002 C 
ATOM     38  CG2 VAL A   5     -10.886  13.340 -20.721  1.00  0.00    +0.002 C 
ATOM     39  N   ASN A   6      -8.385  13.537 -23.127  1.00  0.00    -0.196 N 
ATOM     40  CA  ASN A   6      -8.436  14.834 -23.795  1.00  0.00    +0.182 C 
ATOM     41  C   ASN A   6      -9.847  15.397 -23.811  1.00  0.00    +0.262 C 
ATOM     42  O   ASN A   6     -10.804  14.676 -24.090  1.00  0.00    -0.271 OA
ATOM     43  CB  ASN A   6      -7.913  14.734 -25.219  1.00  0.00    +0.120 C 
ATOM     44  CG  ASN A   6      -6.417  14.475 -25.275  1.00  0.00    +0.263 C 
ATOM     45  OD1 ASN A   6      -5.961  13.354 -25.055  1.00  0.00    -0.272 OA
ATOM     46  ND2 ASN A   6      -5.645  15.519 -25.570  1.00  0.00    -0.088 N 
ATOM     47  N   ALA A   7      -9.979  16.687 -23.513  1.00  0.00    -0.196 N 
ATOM     48  CA  ALA A   7     -11.061  17.491 -24.071  1.00  0.00    +0.173 C 
ATOM     49  C   ALA A   7     -10.945  17.590 -25.582  1.00  0.00    +0.262 C 
ATOM     50  O   ALA A   7     -11.888  18.008 -26.255  1.00  0.00    -0.271 OA
ATOM     51  CB  ALA A   7     -11.064  18.888 -23.469  1.00  0.00    +0.033 C 
ATOM     52  N   LEU A   8      -9.790  17.207 -26.119  1.00  0.00    -0.196 N 
ATOM     53  CA  LEU A   8      -9.191  17.934 -27.234  1.00  0.00    +0.173 C 
ATOM     54  C   LEU A   8      -9.457  17.219 -28.550  1.00  0.00    +0.263 C 
ATOM     55  O   LEU A   8      -9.270  16.007 -28.650  1.00  0.00    -0.271 OA
ATOM     56  CB  LEU A   8      -7.693  18.088 -27.033  1.00  0.00    +0.031 C 
ATOM     57  CG  LEU A   8      -7.140  19.508 -27.159  1.00  0.00    +0.002 C 
ATOM     58  CD1 LEU A   8      -5.723  19.575 -26.602  1.00  0.00    +0.000 C 
ATOM     59  CD2 LEU A   8      -7.824  20.441 -26.165  1.00  0.00    +0.000 C 
ATOM     60  N   LEU A   9      -9.889  17.969 -29.559  1.00  0.00    -0.185 N 
ATOM     61  CA  LEU A   9      -9.405  17.764 -30.921  1.00  0.00    +0.199 C 
ATOM     62  C   LEU A   9      -8.746  19.024 -31.457  1.00  0.00    +0.226 C 
ATOM     63  O   LEU A   9      -9.428  19.992 -31.792  1.00  0.00    -0.335 OA
ATOM     64  CB  LEU A   9     -10.544  17.356 -31.841  1.00  0.00    +0.074 C 
ATOM     65  CG  LEU A   9     -10.362  16.035 -32.593  1.00  0.00    +0.168 C 
ATOM     66  CD1 LEU A   9     -11.227  16.018 -33.847  1.00  0.00    +0.037 C 
ATOM     67  CD2 LEU A   9     -11.030  14.892 -31.835  1.00  0.00    +0.176 C 
ATOM     68  N   VAL A  10      -7.420  19.015 -31.540  1.00  0.00    -0.181 NA
ATOM     69  CA  VAL A  10      -6.705  17.920 -32.191  1.00  0.00    +0.153 C 
ATOM     70  C   VAL A  10      -6.852  16.650 -31.370  1.00  0.00    +0.259 C 
ATOM     71  O   VAL A  10      -6.503  16.623 -30.192  1.00  0.00    -0.272 OA
ATOM     72  CB  VAL A  10      -5.230  18.237 -32.376  1.00  0.00    +0.025 C 
ATOM     73  CG1 VAL A  10      -4.570  17.214 -33.299  1.00  0.00    +0.002 C 
ATOM     74  CG2 VAL A  10      -5.056  19.618 -33.004  1.00  0.00    +0.002 C 
ATOM     75  N   PHE A  11      -7.370  15.594 -31.992  1.00  0.00    -0.176 N 
ATOM     76  CA  PHE A  11      -6.840  14.251 -31.780  1.00  0.00    +0.057 C 
ATOM     77  C   PHE A  11      -5.886  13.866 -32.899  1.00  0.00    +0.321 C 
ATOM     78  O   PHE A  11      -6.007  14.358 -34.020  1.00  0.00    -0.263 OA
ATOM     79  CB  PHE A  11      -7.964  13.230 -31.696  1.00  0.00    +0.102 C 
ATOM     80  CG  PHE A  11      -7.866  12.318 -30.512  1.00  0.00    +0.011 A 
ATOM     81  CD1 PHE A  11      -7.836  12.846 -29.226  1.00  0.00    -0.001 A 
ATOM     82  CE1 PHE A  11      -7.745  12.000 -28.128  1.00  0.00    +0.003 A 
ATOM     83  CD2 PHE A  11      -7.807  10.941 -30.697  1.00  0.00    +0.085 A 
ATOM     84  CE2 PHE A  11      -7.717  10.094 -29.599  1.00  0.00    +0.152 A 
ATOM     85  CZ  PHE A  11      -7.687  10.623 -28.314  1.00  0.00    +0.038 A 
ATOM     86  N   PHE A  12      -4.938  12.984 -32.597  1.00  0.00    -0.190 N 
ATOM     87  CA  PHE A  12      -4.249  12.223 -33.635  1.00  0.00    +0.177 C 
ATOM     88  C   PHE A  12      -4.202  10.746 -33.280  1.00  0.00    +0.262 C 
ATOM     89  O   PHE A  12      -3.724  10.376 -32.208  1.00  0.00    -0.271 OA
ATOM     90  CB  PHE A  12      -2.834  12.740 -33.838  1.00  0.00    +0.057 C 
ATOM     91  CG  PHE A  12      -2.771  14.150 -34.347  1.00  0.00    -0.020 A 
ATOM     92  CD1 PHE A  12      -3.027  14.418 -35.686  1.00  0.00    -0.004 A 
ATOM     93  CE1 PHE A  12      -2.969  15.725 -36.157  1.00  0.00    -0.000 A 
ATOM     94  CD2 PHE A  12      -2.458  15.189 -33.477  1.00  0.00    -0.004 A 
ATOM     95  CE2 PHE A  12      -2.401  16.496 -33.948  1.00  0.00    -0.000 A 
ATOM     96  CZ  PHE A  12      -2.656  16.764 -35.288  1.00  0.00    -0.000 A 
ATOM     97  N   ALA A  13      -4.698   9.900 -34.179  1.00  0.00    -0.196 N 
ATOM     98  CA  ALA A  13      -4.782  10.254 -35.591  1.00  0.00    +0.173 C 
ATOM     99  C   ALA A  13      -5.908  11.245 -35.840  1.00  0.00    +0.262 C 
ATOM    100  O   ALA A  13      -5.741  12.203 -36.594  1.00  0.00    -0.271 OA
ATOM    101  CB  ALA A  13      -4.998   9.017 -36.447  1.00  0.00    +0.033 C 
ATOM    102  N   GLY A  14      -7.055  11.017 -35.208  1.00  0.00    -0.194 N 
ATOM    103  CA  GLY A  14      -7.087  10.687 -33.785  1.00  0.00    +0.200 C 
ATOM    104  C   GLY A  14      -8.518  10.598 -33.282  1.00  0.00    +0.252 C 
ATOM    105  O   GLY A  14      -9.419  10.205 -34.022  1.00  0.00    -0.273 OA
ATOM    106  N   SER A  15      -8.729  10.965 -32.020  1.00  0.00    -0.249 N 
ATOM    107  CA  SER A  15     -10.045  11.408 -31.569  1.00  0.00    +0.166 C 
ATOM    108  C   SER A  15     -10.219  12.907 -31.760  1.00  0.00    +0.199 C 
ATOM    109  O   SER A  15     -11.343  13.404 -31.805  1.00  0.00    -0.336 OA
ATOM    110  CB  SER A  15     -10.258  11.055 -30.107  1.00  0.00    +0.229 C 
ATOM    111  OG  SER A  15      -9.192  10.257 -29.622  1.00  0.00    -0.472 OA
ATOM    112  N   SER A  16      -9.106  13.626 -31.870  1.00  0.00    -0.241 NA
ATOM    113  CA  SER A  16      -8.981  14.936 -31.237  1.00  0.00    +0.124 C 
ATOM    114  C   SER A  16      -9.659  16.016 -32.065  1.00  0.00    +0.108 C 
ATOM    115  O   SER A  16      -9.565  16.012 -33.292  1.00  0.00    -0.222 OA
ATOM    116  CB  SER A  16      -7.518  15.296 -31.032  1.00  0.00    +0.218 C 
ATOM    117  OG  SER A  16      -6.969  14.570 -29.947  1.00  0.00    -0.202 OA
ATOM    118  N   ASP A  17     -10.341  16.940 -31.395  1.00  0.00    -0.251 NA
ATOM    119  CA  ASP A  17     -11.741  17.220 -31.700  1.00  0.00    +0.019 C 
ATOM    120  C   ASP A  17     -11.871  18.013 -32.991  1.00  0.00    +0.321 C 
ATOM    121  O   ASP A  17     -12.959  18.119 -33.553  1.00  0.00    -0.263 OA
ATOM    122  N   ALA A  18     -10.759  18.574 -33.461  1.00  0.00    -0.187 N 
ATOM    123  CA  ALA A  18     -10.662  20.015 -33.666  1.00  0.00    +0.203 C 
ATOM    124  C   ALA A  18     -10.254  20.339 -35.093  1.00  0.00    +0.264 C 
ATOM    125  O   ALA A  18      -9.170  19.959 -35.533  1.00  0.00    -0.271 OA
ATOM    126  CB  ALA A  18      -9.665  20.632 -32.699  1.00  0.00    +0.175 C 
ATOM    127  N   ILE A  19     -11.120  21.041 -35.819  1.00  0.00    -0.196 N 
ATOM    128  CA  ILE A  19     -10.797  22.380 -36.303  1.00  0.00    +0.176 C 
ATOM    129  C   ILE A  19     -11.732  23.395 -35.665  1.00  0.00    +0.262 C 
ATOM    130  O   ILE A  19     -12.936  23.161 -35.568  1.00  0.00    -0.271 OA
ATOM    131  CB  ILE A  19     -10.899  22.475 -37.817  1.00  0.00    +0.073 C 
ATOM    132  CG1 ILE A  19     -10.789  21.092 -38.453  1.00  0.00    +0.006 C 
ATOM    133  CG2 ILE A  19      -9.798  23.377 -38.368  1.00  0.00    +0.211 C 
ATOM    134  CD1 ILE A  19     -11.014  21.085 -39.956  1.00  0.00    +0.000 C 
ATOM    135  N   ARG A  20     -11.179  24.523 -35.230  1.00  0.00    -0.196 N 
ATOM    136  CA  ARG A  20     -11.492  25.810 -35.847  1.00  0.00    +0.173 C 
ATOM    137  C   ARG A  20     -10.758  25.973 -37.169  1.00  0.00    +0.262 C 
ATOM    138  O   ARG A  20     -10.942  26.969 -37.867  1.00  0.00    -0.271 OA
ATOM    139  CB  ARG A  20     -11.128  26.958 -34.921  1.00  0.00    +0.033 C 
ATOM    140  CG  ARG A  20      -9.639  27.261 -34.871  1.00  0.00    +0.029 C 
ATOM    141  CD  ARG A  20      -9.354  28.586 -34.184  1.00  0.00    +0.129 C 
ATOM    142  NE  ARG A  20      -8.175  29.240 -34.743  1.00  0.00    -0.234 NA
ATOM    143  CZ  ARG A  20      -7.673  30.394 -34.311  1.00  0.00    +0.284 C 
ATOM    144  NH1 ARG A  20      -8.241  31.045 -33.301  1.00  0.00    -0.104 N 
ATOM    145  NH2 ARG A  20      -6.590  30.900 -34.898  1.00  0.00    -0.104 N 
ATOM    146  N   ARG A  21      -9.926  24.994 -37.514  1.00  0.00    -0.194 N 
ATOM    147  CA  ARG A  21      -9.004  25.139 -38.636  1.00  0.00    +0.194 C 
ATOM    148  C   ARG A  21      -9.485  24.348 -39.842  1.00  0.00    +0.337 C 
ATOM    149  O   ARG A  21      -9.882  24.927 -40.852  1.00  0.00    -0.248 OA
ATOM    150  CB  ARG A  21      -7.606  24.683 -38.254  1.00  0.00    +0.035 C 
ATOM    151  CG  ARG A  21      -7.029  25.410 -37.051  1.00  0.00    +0.029 C 
ATOM    152  CD  ARG A  21      -5.524  25.585 -37.165  1.00  0.00    +0.129 C 
ATOM    153  NE  ARG A  21      -5.161  26.384 -38.331  1.00  0.00    -0.234 NA
ATOM    154  CZ  ARG A  21      -4.863  25.886 -39.528  1.00  0.00    +0.284 C 
ATOM    155  NH1 ARG A  21      -4.791  24.572 -39.718  1.00  0.00    -0.104 N 
ATOM    156  NH2 ARG A  21      -4.638  26.713 -40.546  1.00  0.00    -0.104 N 
ATOM    157  OXT ARG A  21      -9.484  23.119 -39.823  1.00  0.00    -0.447 OA
ATOM    158  H   MET A   1      -8.503   9.015  -9.821  1.00  0.00    +0.000 HD
ATOM    159  H   MET A   1      -7.048   9.665 -10.304  1.00  0.00    +0.000 HD
ATOM    160  H   LYS A   2      -8.255   7.833 -14.091  1.00  0.00    +0.000 HD
ATOM    161  H   LYS A   2      -6.212   6.894 -20.956  1.00  0.00    +0.000 HD
ATOM    162  H   GLN A   3      -4.083   9.102 -15.505  1.00  0.00    +0.000 HD
ATOM    163  H   GLN A   3      -2.255  11.210 -12.514  1.00  0.00    +0.000 HD
ATOM    164  H   GLN A   3      -0.626  10.703 -12.524  1.00  0.00    +0.000 HD
ATOM    165  H   ALA A   4      -3.821  12.392 -18.999  1.00  0.00    +0.000 HD
ATOM    166  H   VAL A   5      -8.588  11.902 -19.124  1.00  0.00    +0.000 HD
ATOM    167  H   ASN A   6      -8.313  12.718 -23.669  1.00  0.00    +0.000 HD
ATOM    168  H   ASN A   6      -6.051  16.399 -25.738  1.00  0.00    +0.000 HD
ATOM    169  H   ASN A   6      -4.668  15.409 -25.620  1.00  0.00    +0.000 HD
ATOM    170  H   ALA A   7      -9.331  17.109 -22.902  1.00  0.00    +0.000 HD
ATOM    171  H   LEU A   8      -9.330  16.416 -25.757  1.00  0.00    +0.000 HD
ATOM    172  H   LEU A   9     -10.550  18.677 -29.384  1.00  0.00    +0.000 HD
ATOM    173  H   VAL A  10      -7.071  19.058 -30.583  1.00  0.00    +0.000 HD
ATOM    174  H   PHE A  11      -7.527  15.270 -32.908  1.00  0.00    +0.000 HD
ATOM    175  H   PHE A  12      -4.696  12.841 -31.654  1.00  0.00    +0.000 HD
ATOM    176  H   ALA A  13      -5.015   9.016 -33.884  1.00  0.00    +0.000 HD
ATOM    177  H   GLY A  14      -7.900  11.072 -35.709  1.00  0.00    +0.000 HD
ATOM    178  H   SER A  16      -9.630  15.207 -33.829  1.00  0.00    +0.000 HD
ATOM    179  H   SER A  16      -7.221  14.997 -29.113  1.00  0.00    +0.000 HD
ATOM    180  H   ALA A  18      -9.986  18.004 -33.674  1.00  0.00    +0.000 HD
ATOM    181  H   ILE A  19     -11.997  20.649 -36.034  1.00  0.00    +0.000 HD
ATOM    182  H   ARG A  20     -10.546  24.491 -34.477  1.00  0.00    +0.000 HD
ATOM    183  H   ARG A  20      -9.042  30.675 -32.865  1.00  0.00    +0.000 HD
ATOM    184  H   ARG A  20      -7.861  31.898 -32.990  1.00  0.00    +0.000 HD
ATOM    185  H   ARG A  20      -6.167  30.420 -35.646  1.00  0.00    +0.000 HD
ATOM    186  H   ARG A  20      -6.213  31.752 -34.583  1.00  0.00    +0.000 HD
ATOM    187  H   ARG A  21      -9.933  24.153 -37.001  1.00  0.00    +0.000 HD
ATOM    188  H   ARG A  21      -4.570  24.214 -40.609  1.00  0.00    +0.000 HD
ATOM    189  H   ARG A  21      -4.958  23.957 -38.968  1.00  0.00    +0.000 HD
ATOM    190  H   ARG A  21      -4.418  26.351 -41.434  1.00  0.00    +0.000 HD
ATOM    191  H   ARG A  21      -4.691  27.687 -40.410  1.00  0.00    +0.000 HD
ATOM      1  CB  ASP A  17     -12.401  17.986 -30.566  1.00  0.00    +0.126 C 
ATOM      2  CG  ASP A  17     -11.693  19.290 -30.237  1.00  0.00    +0.365 C 
ATOM      3  OD1 ASP A  17     -10.813  19.718 -31.014  1.00  0.00    -0.246 OA
ATOM      4  OD2 ASP A  17     -12.021  19.893 -29.192  1.00  0.00    -0.246 OA
ATOM      5  H   ASP A  17     -12.686  19.538 -28.636  1.00  0.00    +0.000 HD
ENDROOT
TORSDOF 0
