REMARK  Name = /var/folders/yp/yjbh3p597675h2qddgqr02y00000gn/T/tmpdqim9s9h.pdb
REMARK   1 CREATED WITH OPENMM 8.6.1, 2026-10-07
REMARK                            x       y       z     vdW  Elec       q    Type
REMARK                         _______ _______ _______ _____ _____    ______ ____
ROOT
ATOM      1  N   MET A   1      -6.223 -22.837  14.555  1.00  0.00    -0.123 NA
ATOM      2  CA  MET A   1      -7.342 -23.807  14.539  1.00  0.00    +0.170 C 
ATOM      3  C   MET A   1      -7.720 -24.143  13.109  1.00  0.00    +0.259 C 
ATOM      4  O   MET A   1      -7.445 -23.363  12.193  1.00  0.00    -0.272 OA
ATOM      5  CB  MET A   1      -8.577 -23.290  15.292  1.00  0.00    +0.040 C 
ATOM      6  CG  MET A   1      -8.404 -23.373  16.809  1.00  0.00    +0.060 C 
ATOM      7  SD  MET A   1      -7.095 -22.306  17.470  1.00  0.00    -0.139 S 
ATOM      8  CE  MET A   1      -6.267 -23.477  18.574  1.00  0.00    +0.069 C 
ATOM      9  N   LYS A   2      -8.315 -25.325  12.903  1.00  0.00    -0.197 N 
ATOM     10  CA  LYS A   2      -8.420 -25.924  11.569  1.00  0.00    +0.173 C 
ATOM     11  C   LYS A   2      -9.227 -25.052  10.615  1.00  0.00    +0.262 C 
ATOM     12  O   LYS A   2     -10.299 -24.551  10.964  1.00  0.00    -0.271 OA
ATOM     13  CB  LYS A   2      -8.997 -27.343  11.626  1.00  0.00    +0.031 C 
ATOM     14  CG  LYS A   2     -10.500 -27.394  11.947  1.00  0.00    +0.004 C 
ATOM     15  CD  LYS A   2     -11.090 -28.785  11.711  1.00  0.00    +0.021 C 
ATOM     16  CE  LYS A   2     -12.132 -28.749  10.590  1.00  0.00    +0.109 C 
ATOM     17  NZ  LYS A   2     -13.475 -29.165  11.021  1.00  0.00    -0.131 NA
ATOM     18  N   GLN A   3      -8.727 -24.883   9.403  1.00  0.00    -0.196 N 
ATOM     19  CA  GLN A   3      -9.372 -24.048   8.397  1.00  0.00    +0.173 C 
ATOM     20  C   GLN A   3      -9.857 -24.889   7.224  1.00  0.00    +0.262 C 
ATOM     21  O   GLN A   3      -9.118 -25.716   6.687  1.00  0.00    -0.271 OA
ATOM     22  CB  GLN A   3      -8.374 -22.986   7.933  1.00  0.00    +0.041 C 
ATOM     23  CG  GLN A   3      -8.206 -21.850   8.952  1.00  0.00    +0.091 C 
ATOM     24  CD  GLN A   3      -6.759 -21.387   9.042  1.00  0.00    +0.261 C 
ATOM     25  OE1 GLN A   3      -5.813 -22.120   8.778  1.00  0.00    -0.272 OA
ATOM     26  NE2 GLN A   3      -6.528 -20.150   9.425  1.00  0.00    -0.088 N 
ATOM     27  N   ALA A   4     -11.083 -24.601   6.786  1.00  0.00    -0.196 N 
ATOM     28  CA  ALA A   4     -11.252 -23.964   5.487  1.00  0.00    +0.173 C 
ATOM     29  C   ALA A   4     -10.709 -22.531   5.538  1.00  0.00    +0.262 C 
ATOM     30  O   ALA A   4     -10.873 -21.829   6.540  1.00  0.00    -0.271 OA
ATOM     31  CB  ALA A   4     -12.742 -23.928   5.127  1.00  0.00    +0.033 C 
ATOM     32  N   VAL A   5     -10.095 -22.079   4.447  1.00  0.00    -0.196 N 
ATOM     33  CA  VAL A   5      -9.812 -20.647   4.269  1.00  0.00    +0.173 C 
ATOM     34  C   VAL A   5     -11.096 -19.890   3.961  1.00  0.00    +0.262 C 
ATOM     35  O   VAL A   5     -11.243 -18.722   4.318  1.00  0.00    -0.271 OA
ATOM     36  CB  VAL A   5      -8.794 -20.410   3.139  1.00  0.00    +0.029 C 
ATOM     37  CG1 VAL A   5      -7.555 -21.291   3.319  1.00  0.00    +0.002 C 
ATOM     38  CG2 VAL A   5      -9.307 -20.701   1.731  1.00  0.00    +0.002 C 
ATOM     39  N   ASN A   6     -11.999 -20.570   3.246  1.00  0.00    -0.196 N 
ATOM     40  CA  ASN A   6     -12.650 -19.989   2.076  1.00  0.00    +0.182 C 
ATOM     41  C   ASN A   6     -13.742 -19.005   2.411  1.00  0.00    +0.262 C 
ATOM     42  O   ASN A   6     -14.290 -18.433   1.483  1.00  0.00    -0.271 OA
ATOM     43  CB  ASN A   6     -13.199 -21.119   1.184  1.00  0.00    +0.120 C 
ATOM     44  CG  ASN A   6     -12.113 -21.923   0.504  1.00  0.00    +0.263 C 
ATOM     45  OD1 ASN A   6     -11.560 -22.850   1.080  1.00  0.00    -0.272 OA
ATOM     46  ND2 ASN A   6     -11.782 -21.595  -0.725  1.00  0.00    -0.088 N 
ATOM     47  N   ALA A   7     -14.075 -18.855   3.690  1.00  0.00    -0.196 N 
ATOM     48  CA  ALA A   7     -15.420 -18.537   4.128  1.00  0.00    +0.173 C 
ATOM     49  C   ALA A   7     -15.972 -17.290   3.445  1.00  0.00    +0.262 C 
ATOM     50  O   ALA A   7     -15.255 -16.302   3.251  1.00  0.00    -0.271 OA
ATOM     51  CB  ALA A   7     -15.434 -18.373   5.648  1.00  0.00    +0.033 C 
ATOM     52  N   LEU A   8     -17.259 -17.329   3.113  1.00  0.00    -0.196 N 
ATOM     53  CA  LEU A   8     -17.970 -16.173   2.572  1.00  0.00    +0.173 C 
ATOM     54  C   LEU A   8     -18.965 -15.686   3.610  1.00  0.00    +0.262 C 
ATOM     55  O   LEU A   8     -19.921 -16.392   3.941  1.00  0.00    -0.271 OA
ATOM     56  CB  LEU A   8     -18.689 -16.537   1.266  1.00  0.00    +0.031 C 
ATOM     57  CG  LEU A   8     -17.807 -16.635   0.011  1.00  0.00    +0.002 C 
ATOM     58  CD1 LEU A   8     -18.465 -17.551  -1.014  1.00  0.00    +0.000 C 
ATOM     59  CD2 LEU A   8     -16.475 -17.301   0.240  1.00  0.00    +0.000 C 
ATOM     60  N   LEU A   9     -18.761 -14.463   4.089  1.00  0.00    -0.196 N 
ATOM     61  CA  LEU A   9     -19.815 -13.716   4.759  1.00  0.00    +0.173 C 
ATOM     62  C   LEU A   9     -20.558 -12.847   3.766  1.00  0.00    +0.262 C 
ATOM     63  O   LEU A   9     -19.950 -12.090   3.007  1.00  0.00    -0.271 OA
ATOM     64  CB  LEU A   9     -19.249 -12.876   5.917  1.00  0.00    +0.031 C 
ATOM     65  CG  LEU A   9     -19.041 -13.662   7.230  1.00  0.00    +0.002 C 
ATOM     66  CD1 LEU A   9     -19.436 -15.134   7.197  1.00  0.00    +0.000 C 
ATOM     67  CD2 LEU A   9     -19.911 -13.135   8.354  1.00  0.00    +0.000 C 
ATOM     68  N   VAL A  10     -21.884 -12.898   3.853  1.00  0.00    -0.196 N 
ATOM     69  CA  VAL A  10     -22.737 -11.804   3.408  1.00  0.00    +0.173 C 
ATOM     70  C   VAL A  10     -23.684 -11.438   4.537  1.00  0.00    +0.262 C 
ATOM     71  O   VAL A  10     -24.613 -12.183   4.856  1.00  0.00    -0.271 OA
ATOM     72  CB  VAL A  10     -23.524 -12.125   2.125  1.00  0.00    +0.029 C 
ATOM     73  CG1 VAL A  10     -23.859 -10.823   1.386  1.00  0.00    +0.002 C 
ATOM     74  CG2 VAL A  10     -22.749 -13.035   1.170  1.00  0.00    +0.002 C 
ATOM     75  N   PHE A  11     -23.462 -10.269   5.124  1.00  0.00    -0.196 N 
ATOM     76  CA  PHE A  11     -24.556  -9.469   5.678  1.00  0.00    +0.177 C 
ATOM     77  C   PHE A  11     -25.108  -8.541   4.609  1.00  0.00    +0.262 C 
ATOM     78  O   PHE A  11     -26.315  -8.317   4.561  1.00  0.00    -0.271 OA
ATOM     79  CB  PHE A  11     -24.085  -8.613   6.856  1.00  0.00    +0.057 C 
ATOM     80  CG  PHE A  11     -23.408  -9.405   7.937  1.00  0.00    -0.020 A 
ATOM     81  CD1 PHE A  11     -22.130  -9.919   7.702  1.00  0.00    -0.004 A 
ATOM     82  CE1 PHE A  11     -21.469 -10.585   8.723  1.00  0.00    -0.000 A 
ATOM     83  CD2 PHE A  11     -24.017  -9.573   9.191  1.00  0.00    -0.004 A 
ATOM     84  CE2 PHE A  11     -23.363 -10.306  10.195  1.00  0.00    -0.000 A 
ATOM     85  CZ  PHE A  11     -22.087 -10.837   9.953  1.00  0.00    -0.000 A 
ATOM     86  N   PHE A  12     -24.216  -7.976   3.786  1.00  0.00    -0.196 N 
ATOM     87  CA  PHE A  12     -24.457  -6.743   3.044  1.00  0.00    +0.177 C 
ATOM     88  C   PHE A  12     -25.305  -6.962   1.794  1.00  0.00    +0.262 C 
ATOM     89  O   PHE A  12     -24.886  -6.663   0.675  1.00  0.00    -0.271 OA
ATOM     90  CB  PHE A  12     -23.129  -6.052   2.707  1.00  0.00    +0.057 C 
ATOM     91  CG  PHE A  12     -22.494  -5.344   3.875  1.00  0.00    -0.020 A 
ATOM     92  CD1 PHE A  12     -21.773  -6.070   4.837  1.00  0.00    -0.004 A 
ATOM     93  CE1 PHE A  12     -21.182  -5.399   5.919  1.00  0.00    -0.000 A 
ATOM     94  CD2 PHE A  12     -22.617  -3.949   3.989  1.00  0.00    -0.004 A 
ATOM     95  CE2 PHE A  12     -22.013  -3.279   5.063  1.00  0.00    -0.000 A 
ATOM     96  CZ  PHE A  12     -21.297  -4.005   6.028  1.00  0.00    -0.000 A 
ATOM     97  N   ALA A  13     -26.531  -7.437   1.993  1.00  0.00    -0.196 N 
ATOM     98  CA  ALA A  13     -27.678  -6.841   1.339  1.00  0.00    +0.173 C 
ATOM     99  C   ALA A  13     -27.886  -5.416   1.864  1.00  0.00    +0.262 C 
ATOM    100  O   ALA A  13     -28.040  -5.193   3.071  1.00  0.00    -0.271 OA
ATOM    101  CB  ALA A  13     -28.921  -7.692   1.615  1.00  0.00    +0.033 C 
ATOM    102  N   GLY A  14     -27.944  -4.460   0.944  1.00  0.00    -0.194 N 
ATOM    103  CA  GLY A  14     -28.490  -3.142   1.222  1.00  0.00    +0.201 C 
ATOM    104  C   GLY A  14     -27.562  -2.285   2.069  1.00  0.00    +0.264 C 
ATOM    105  O   GLY A  14     -26.386  -2.120   1.737  1.00  0.00    -0.271 OA
ATOM    106  N   SER A  15     -28.127  -1.701   3.123  1.00  0.00    -0.194 N 
ATOM    107  CA  SER A  15     -28.439  -0.270   3.095  1.00  0.00    +0.205 C 
ATOM    108  C   SER A  15     -27.251   0.614   2.722  1.00  0.00    +0.264 C 
ATOM    109  O   SER A  15     -26.111   0.368   3.123  1.00  0.00    -0.271 OA
ATOM    110  CB  SER A  15     -29.017   0.162   4.451  1.00  0.00    +0.213 C 
ATOM    111  OG  SER A  15     -28.021   0.159   5.459  1.00  0.00    -0.218 OA
ATOM    112  N   SER A  16     -27.538   1.699   2.001  1.00  0.00    -0.194 N 
ATOM    113  CA  SER A  16     -26.839   2.959   2.247  1.00  0.00    +0.205 C 
ATOM    114  C   SER A  16     -27.254   3.511   3.611  1.00  0.00    +0.264 C 
ATOM    115  O   SER A  16     -28.378   3.296   4.071  1.00  0.00    -0.271 OA
ATOM    116  CB  SER A  16     -27.169   3.989   1.163  1.00  0.00    +0.213 C 
ATOM    117  OG  SER A  16     -28.523   4.414   1.241  1.00  0.00    -0.218 OA
ATOM    118  N   ASP A  17     -26.386   4.286   4.239  1.00  0.00    -0.196 N 
ATOM    119  CA  ASP A  17     -26.763   5.174   5.334  1.00  0.00    +0.184 C 
ATOM    120  C   ASP A  17     -26.862   6.619   4.839  1.00  0.00    +0.262 C 
ATOM    121  O   ASP A  17     -26.187   7.020   3.887  1.00  0.00    -0.271 OA
ATOM    122  CB  ASP A  17     -25.753   5.077   6.481  1.00  0.00    +0.145 C 
ATOM    123  CG  ASP A  17     -24.332   5.499   6.088  1.00  0.00    +0.367 C 
ATOM    124  OD1 ASP A  17     -23.906   5.292   4.927  1.00  0.00    -0.246 OA
ATOM    125  OD2 ASP A  17     -23.613   6.034   6.961  1.00  0.00    -0.246 OA
ATOM    126  N   ALA A  18     -27.658   7.422   5.535  1.00  0.00    -0.196 N 
ATOM    127  CA  ALA A  18     -27.478   8.868   5.574  1.00  0.00    +0.173 C 
ATOM    128  C   ALA A  18     -27.408   9.335   7.027  1.00  0.00    +0.262 C 
ATOM    129  O   ALA A  18     -27.966   8.697   7.925  1.00  0.00    -0.271 OA
ATOM    130  CB  ALA A  18     -28.608   9.568   4.818  1.00  0.00    +0.033 C 
ATOM    131  N   ILE A  19     -26.756  10.470   7.253  1.00  0.00    -0.196 N 
ATOM    132  CA  ILE A  19     -26.890  11.223   8.499  1.00  0.00    +0.173 C 
ATOM    133  C   ILE A  19     -27.791  12.425   8.262  1.00  0.00    +0.262 C 
ATOM    134  O   ILE A  19     -27.674  13.112   7.243  1.00  0.00    -0.271 OA
ATOM    135  CB  ILE A  19     -25.505  11.632   9.041  1.00  0.00    +0.029 C 
ATOM    136  CG1 ILE A  19     -25.197  10.809  10.307  1.00  0.00    +0.002 C 
ATOM    137  CG2 ILE A  19     -25.338  13.126   9.359  1.00  0.00    +0.002 C 
ATOM    138  CD1 ILE A  19     -23.748  10.948  10.784  1.00  0.00    +0.000 C 
ATOM    139  N   ARG A  20     -28.626  12.729   9.254  1.00  0.00    -0.196 N 
ATOM    140  CA  ARG A  20     -29.104  14.094   9.470  1.00  0.00    +0.173 C 
ATOM    141  C   ARG A  20     -28.081  14.900  10.270  1.00  0.00    +0.262 C 
ATOM    142  O   ARG A  20     -27.526  14.409  11.256  1.00  0.00    -0.271 OA
ATOM    143  CB  ARG A  20     -30.461  14.097  10.178  1.00  0.00    +0.033 C 
ATOM    144  CG  ARG A  20     -30.430  13.477  11.586  1.00  0.00    +0.029 C 
ATOM    145  CD  ARG A  20     -31.651  13.904  12.387  1.00  0.00    +0.129 C 
ATOM    146  NE  ARG A  20     -31.503  13.550  13.808  1.00  0.00    -0.234 NA
ATOM    147  CZ  ARG A  20     -31.916  12.436  14.379  1.00  0.00    +0.284 C 
ATOM    148  NH1 ARG A  20     -32.376  11.433  13.684  1.00  0.00    -0.104 N 
ATOM    149  NH2 ARG A  20     -31.883  12.317  15.675  1.00  0.00    -0.104 N 
ATOM    150  N   ARG A  21     -27.873  16.156   9.892  1.00  0.00    -0.194 N 
ATOM    151  CA  ARG A  21     -27.320  17.155  10.819  1.00  0.00    +0.198 C 
ATOM    152  C   ARG A  21     -28.348  17.563  11.880  1.00  0.00    +0.384 C 
ATOM    153  O   ARG A  21     -27.994  18.337  12.789  1.00  0.00    -0.244 OA
ATOM    154  CB  ARG A  21     -26.797  18.367  10.041  1.00  0.00    +0.035 C 
ATOM    155  CG  ARG A  21     -27.931  19.195   9.419  1.00  0.00    +0.029 C 
ATOM    156  CD  ARG A  21     -27.421  20.545   8.922  1.00  0.00    +0.129 C 
ATOM    157  NE  ARG A  21     -27.334  20.597   7.457  1.00  0.00    -0.234 NA
ATOM    158  CZ  ARG A  21     -26.601  21.443   6.766  1.00  0.00    +0.284 C 
ATOM    159  NH1 ARG A  21     -25.856  22.345   7.343  1.00  0.00    -0.104 N 
ATOM    160  NH2 ARG A  21     -26.605  21.394   5.466  1.00  0.00    -0.104 N 
ATOM    161  OXT ARG A  21     -29.523  17.157  11.786  1.00  0.00    -0.244 OA
ATOM    162  H   MET A   1      -5.430 -23.225  14.044  1.00  0.00    +0.000 HD
ATOM    163  H   MET A   1      -5.949 -22.650  15.519  1.00  0.00    +0.000 HD
ATOM    164  H   LYS A   2      -8.695 -25.808  13.673  1.00  0.00    +0.000 HD
ATOM    165  H   LYS A   2     -13.817 -28.524  11.737  1.00  0.00    +0.000 HD
ATOM    166  H   LYS A   2     -13.432 -30.110  11.403  1.00  0.00    +0.000 HD
ATOM    167  H   GLN A   3      -7.886 -25.339   9.171  1.00  0.00    +0.000 HD
ATOM    168  H   GLN A   3      -7.281 -19.552   9.639  1.00  0.00    +0.000 HD
ATOM    169  H   GLN A   3      -5.603 -19.822   9.496  1.00  0.00    +0.000 HD
ATOM    170  H   ALA A   4     -11.869 -24.818   7.338  1.00  0.00    +0.000 HD
ATOM    171  H   VAL A   5      -9.825 -22.715   3.746  1.00  0.00    +0.000 HD
ATOM    172  H   ASN A   6     -12.232 -21.488   3.517  1.00  0.00    +0.000 HD
ATOM    173  H   ASN A   6     -11.079 -22.098  -1.196  1.00  0.00    +0.000 HD
ATOM    174  H   ASN A   6     -12.238 -20.847  -1.174  1.00  0.00    +0.000 HD
ATOM    175  H   ALA A   7     -13.374 -18.967   4.373  1.00  0.00    +0.000 HD
ATOM    176  H   LEU A   8     -17.754 -18.171   3.237  1.00  0.00    +0.000 HD
ATOM    177  H   LEU A   9     -17.872 -14.052   3.989  1.00  0.00    +0.000 HD
ATOM    178  H   VAL A  10     -22.304 -13.704   4.231  1.00  0.00    +0.000 HD
ATOM    179  H   PHE A  11     -22.540  -9.932   5.188  1.00  0.00    +0.000 HD
ATOM    180  H   PHE A  12     -23.344  -8.419   3.675  1.00  0.00    +0.000 HD
ATOM    181  H   ALA A  13     -26.661  -8.206   2.594  1.00  0.00    +0.000 HD
ATOM    182  H   GLY A  14     -27.604  -4.652   0.041  1.00  0.00    +0.000 HD
ATOM    183  H   SER A  15     -28.337  -2.233   3.924  1.00  0.00    +0.000 HD
ATOM    184  H   SER A  15     -27.665  -0.738   5.559  1.00  0.00    +0.000 HD
ATOM    185  H   SER A  16     -28.227   1.651   1.299  1.00  0.00    +0.000 HD
ATOM    186  H   SER A  16     -28.682   4.833   2.102  1.00  0.00    +0.000 HD
ATOM    187  H   ASP A  17     -25.444   4.262   3.957  1.00  0.00    +0.000 HD
ATOM    188  H   ASP A  17     -23.952   6.180   7.822  1.00  0.00    +0.000 HD
ATOM    189  H   ALA A  18     -28.400   7.025   6.046  1.00  0.00    +0.000 HD
ATOM    190  H   ILE A  19     -26.158  10.817   6.553  1.00  0.00    +0.000 HD
ATOM    191  H   ARG A  20     -28.930  12.014   9.859  1.00  0.00    +0.000 HD
ATOM    192  H   ARG A  20     -32.677  10.614  14.141  1.00  0.00    +0.000 HD
ATOM    193  H   ARG A  20     -32.423  11.494  12.702  1.00  0.00    +0.000 HD
ATOM    194  H   ARG A  20     -32.192  11.485  16.102  1.00  0.00    +0.000 HD
ATOM    195  H   ARG A  20     -31.550  13.060  16.229  1.00  0.00    +0.000 HD
ATOM    196  H   ARG A  21     -28.093  16.425   8.971  1.00  0.00    +0.000 HD
ATOM    197  H   ARG A  21     -27.105  18.628  12.837  1.00  0.00    +0.000 HD
ATOM    198  H   ARG A  21     -25.319  22.963   6.796  1.00  0.00    +0.000 HD
ATOM    199  H   ARG A  21     -25.830  22.406   8.325  1.00  0.00    +0.000 HD
ATOM    200  H   ARG A  21     -27.156  20.725   5.000  1.00  0.00    +0.000 HD
ATOM    201  H   ARG A  21     -26.055  22.025   4.948  1.00  0.00    +0.000 HD
ENDROOT
TORSDOF 0
