REMARK  Name = /var/folders/yp/yjbh3p597675h2qddgqr02y00000gn/T/tmpcl_d5hqu.pdb
REMARK     285 UNITARY VALUES FOR THE UNIT CELL AUTOMATICALLY SET
REMARK     285 BY MDANALYSIS PDBWRITER BECAUSE UNIT CELL INFORMATION
REMARK     285 WAS MISSING.
REMARK     285 PROTEIN DATA BANK CONVENTIONS REQUIRE THAT
REMARK     285 CRYST1 RECORD IS INCLUDED, BUT THE VALUES ON
REMARK     285 THIS RECORD ARE MEANINGLESS.
REMARK     285 UNITARY VALUES FOR THE UNIT CELL AUTOMATICALLY SET
REMARK     285 BY MDANALYSIS PDBWRITER BECAUSE UNIT CELL INFORMATION
REMARK     285 WAS MISSING.
REMARK     285 PROTEIN DATA BANK CONVENTIONS REQUIRE THAT
REMARK     285 CRYST1 RECORD IS INCLUDED, BUT THE VALUES ON
REMARK     285 THIS RECORD ARE MEANINGLESS.
REMARK                            x       y       z     vdW  Elec       q    Type
REMARK                         _______ _______ _______ _____ _____    ______ ____
ROOT
ATOM      1  N   MET A   1     -19.098  22.274  11.502  1.00  0.00    -0.123 NA
ATOM      2  CA  MET A   1     -17.949  23.112  11.834  1.00  0.00    +0.170 C 
ATOM      3  C   MET A   1     -16.967  23.173  10.675  1.00  0.00    +0.259 C 
ATOM      4  O   MET A   1     -16.760  22.180   9.980  1.00  0.00    -0.272 OA
ATOM      5  CB  MET A   1     -17.238  22.593  13.074  1.00  0.00    +0.040 C 
ATOM      6  CG  MET A   1     -16.147  23.520  13.585  1.00  0.00    +0.060 C 
ATOM      7  SD  MET A   1     -14.672  23.507  12.536  1.00  0.00    -0.139 S 
ATOM      8  CE  MET A   1     -13.395  23.279  13.769  1.00  0.00    +0.069 C 
ATOM      9  N   LYS A   2     -16.362  24.339  10.467  1.00  0.00    -0.197 N 
ATOM     10  CA  LYS A   2     -15.623  24.602   9.236  1.00  0.00    +0.173 C 
ATOM     11  C   LYS A   2     -14.213  25.085   9.536  1.00  0.00    +0.262 C 
ATOM     12  O   LYS A   2     -14.031  26.102  10.204  1.00  0.00    -0.271 OA
ATOM     13  CB  LYS A   2     -16.342  25.635   8.383  1.00  0.00    +0.031 C 
ATOM     14  CG  LYS A   2     -15.734  25.825   7.003  1.00  0.00    +0.009 C 
ATOM     15  CD  LYS A   2     -16.442  26.917   6.220  1.00  0.00    +0.049 C 
ATOM     16  CE  LYS A   2     -17.859  26.617   6.034  1.00  0.00    +0.096 C 
ATOM     17  NZ  LYS A   2     -18.357  25.899   5.032  1.00  0.00    -0.151 NA
ATOM     18  N   GLN A   3     -13.216  24.356   9.044  1.00  0.00    -0.196 N 
ATOM     19  CA  GLN A   3     -11.970  24.975   8.598  1.00  0.00    +0.173 C 
ATOM     20  C   GLN A   3     -12.146  25.649   7.247  1.00  0.00    +0.262 C 
ATOM     21  O   GLN A   3     -12.804  25.106   6.359  1.00  0.00    -0.271 OA
ATOM     22  CB  GLN A   3     -10.855  23.947   8.510  1.00  0.00    +0.041 C 
ATOM     23  CG  GLN A   3     -11.279  22.636   7.867  1.00  0.00    +0.091 C 
ATOM     24  CD  GLN A   3     -10.109  21.701   7.609  1.00  0.00    +0.261 C 
ATOM     25  OE1 GLN A   3      -9.768  21.415   6.451  1.00  0.00    -0.272 OA
ATOM     26  NE2 GLN A   3      -9.487  21.219   8.680  1.00  0.00    -0.088 N 
ATOM     27  N   ALA A   4     -11.561  26.831   7.090  1.00  0.00    -0.196 N 
ATOM     28  CA  ALA A   4     -10.360  26.984   6.271  1.00  0.00    +0.173 C 
ATOM     29  C   ALA A   4      -9.240  26.090   6.775  1.00  0.00    +0.262 C 
ATOM     30  O   ALA A   4      -9.048  25.945   7.981  1.00  0.00    -0.271 OA
ATOM     31  CB  ALA A   4      -9.893  28.430   6.264  1.00  0.00    +0.033 C 
ATOM     32  N   VAL A   5      -8.495  25.489   5.852  1.00  0.00    -0.196 N 
ATOM     33  CA  VAL A   5      -7.330  26.148   5.266  1.00  0.00    +0.173 C 
ATOM     34  C   VAL A   5      -7.780  27.317   4.405  1.00  0.00    +0.262 C 
ATOM     35  O   VAL A   5      -8.738  27.199   3.643  1.00  0.00    -0.271 OA
ATOM     36  CB  VAL A   5      -6.497  25.191   4.429  1.00  0.00    +0.029 C 
ATOM     37  CG1 VAL A   5      -6.405  23.824   5.103  1.00  0.00    +0.002 C 
ATOM     38  CG2 VAL A   5      -7.133  24.997   3.054  1.00  0.00    +0.002 C 
ATOM     39  N   ASN A   6      -7.088  28.446   4.524  1.00  0.00    -0.196 N 
ATOM     40  CA  ASN A   6      -7.314  29.575   3.625  1.00  0.00    +0.182 C 
ATOM     41  C   ASN A   6      -6.708  29.324   2.254  1.00  0.00    +0.262 C 
ATOM     42  O   ASN A   6      -7.173  29.871   1.257  1.00  0.00    -0.271 OA
ATOM     43  CB  ASN A   6      -6.741  30.857   4.206  1.00  0.00    +0.120 C 
ATOM     44  CG  ASN A   6      -7.430  32.101   3.670  1.00  0.00    +0.263 C 
ATOM     45  OD1 ASN A   6      -8.153  32.043   2.676  1.00  0.00    -0.272 OA
ATOM     46  ND2 ASN A   6      -7.207  33.234   4.330  1.00  0.00    -0.088 N 
ATOM     47  N   ALA A   7      -5.668  28.495   2.204  1.00  0.00    -0.196 N 
ATOM     48  CA  ALA A   7      -4.461  28.834   1.457  1.00  0.00    +0.173 C 
ATOM     49  C   ALA A   7      -4.777  29.089  -0.008  1.00  0.00    +0.262 C 
ATOM     50  O   ALA A   7      -5.515  28.324  -0.628  1.00  0.00    -0.271 OA
ATOM     51  CB  ALA A   7      -3.428  27.724   1.568  1.00  0.00    +0.033 C 
ATOM     52  N   LEU A   8      -4.220  30.162  -0.561  1.00  0.00    -0.196 N 
ATOM     53  CA  LEU A   8      -4.192  30.344  -2.008  1.00  0.00    +0.173 C 
ATOM     54  C   LEU A   8      -2.881  29.844  -2.592  1.00  0.00    +0.262 C 
ATOM     55  O   LEU A   8      -2.054  29.282  -1.875  1.00  0.00    -0.271 OA
ATOM     56  CB  LEU A   8      -4.384  31.808  -2.370  1.00  0.00    +0.031 C 
ATOM     57  CG  LEU A   8      -5.755  32.406  -2.053  1.00  0.00    +0.002 C 
ATOM     58  CD1 LEU A   8      -5.687  33.929  -2.085  1.00  0.00    +0.000 C 
ATOM     59  CD2 LEU A   8      -6.093  32.220  -0.578  1.00  0.00    +0.000 C 
ATOM     60  N   LEU A   9      -2.691  30.047  -3.892  1.00  0.00    -0.196 N 
ATOM     61  CA  LEU A   9      -1.566  29.441  -4.601  1.00  0.00    +0.173 C 
ATOM     62  C   LEU A   9      -0.342  30.339  -4.539  1.00  0.00    +0.262 C 
ATOM     63  O   LEU A   9      -0.456  31.561  -4.631  1.00  0.00    -0.271 OA
ATOM     64  CB  LEU A   9      -1.927  29.172  -6.052  1.00  0.00    +0.031 C 
ATOM     65  CG  LEU A   9      -3.224  28.398  -6.291  1.00  0.00    +0.002 C 
ATOM     66  CD1 LEU A   9      -3.380  28.074  -7.772  1.00  0.00    +0.002 C 
ATOM     67  CD2 LEU A   9      -4.433  29.314  -6.126  1.00  0.00    +0.000 C 
ATOM     68  N   VAL A  10       0.833  29.736  -4.384  1.00  0.00    -0.196 N 
ATOM     69  CA  VAL A  10       2.006  30.146  -5.152  1.00  0.00    +0.173 C 
ATOM     70  C   VAL A  10       2.584  28.948  -5.886  1.00  0.00    +0.262 C 
ATOM     71  O   VAL A  10       2.872  27.919  -5.277  1.00  0.00    -0.271 OA
ATOM     72  CB  VAL A  10       3.077  30.761  -4.265  1.00  0.00    +0.029 C 
ATOM     73  CG1 VAL A  10       2.992  32.286  -4.298  1.00  0.00    +0.002 C 
ATOM     74  CG2 VAL A  10       2.895  30.310  -2.819  1.00  0.00    +0.002 C 
ATOM     75  N   PHE A  11       2.753  29.079  -7.200  1.00  0.00    -0.196 N 
ATOM     76  CA  PHE A  11       1.695  28.726  -8.142  1.00  0.00    +0.177 C 
ATOM     77  C   PHE A  11       1.572  27.216  -8.272  1.00  0.00    +0.262 C 
ATOM     78  O   PHE A  11       2.506  26.549  -8.715  1.00  0.00    -0.271 OA
ATOM     79  CB  PHE A  11       1.961  29.333  -9.509  1.00  0.00    +0.057 C 
ATOM     80  CG  PHE A  11       0.745  29.409 -10.384  1.00  0.00    -0.020 A 
ATOM     81  CD1 PHE A  11      -0.144  30.469 -10.252  1.00  0.00    -0.004 A 
ATOM     82  CE1 PHE A  11      -1.269  30.540 -11.063  1.00  0.00    -0.000 A 
ATOM     83  CD2 PHE A  11       0.508  28.417 -11.330  1.00  0.00    -0.004 A 
ATOM     84  CE2 PHE A  11      -0.618  28.488 -12.143  1.00  0.00    -0.000 A 
ATOM     85  CZ  PHE A  11      -1.506  29.548 -12.009  1.00  0.00    -0.000 A 
ATOM     86  N   PHE A  12       0.420  26.676  -7.887  1.00  0.00    -0.201 N 
ATOM     87  CA  PHE A  12      -0.052  25.413  -8.447  1.00  0.00    +0.147 C 
ATOM     88  C   PHE A  12      -0.998  25.659  -9.612  1.00  0.00    +0.246 C 
ATOM     89  O   PHE A  12      -0.754  25.192 -10.724  1.00  0.00    -0.202 OA
ATOM     90  CB  PHE A  12      -0.757  24.579  -7.389  1.00  0.00    +0.052 C 
ATOM     91  CG  PHE A  12       0.123  24.187  -6.241  1.00  0.00    -0.020 A 
ATOM     92  CD1 PHE A  12       0.660  25.164  -5.411  1.00  0.00    -0.004 A 
ATOM     93  CE1 PHE A  12       1.477  24.802  -4.345  1.00  0.00    -0.000 A 
ATOM     94  CD2 PHE A  12       0.404  22.846  -6.005  1.00  0.00    -0.004 A 
ATOM     95  CE2 PHE A  12       1.220  22.483  -4.941  1.00  0.00    -0.000 A 
ATOM     96  CZ  PHE A  12       1.757  23.461  -4.111  1.00  0.00    -0.000 A 
ATOM     97  N   ALA A  13      -2.079  26.391  -9.358  1.00  0.00    -0.180 NA
ATOM     98  CA  ALA A  13      -3.407  25.789  -9.294  1.00  0.00    +0.153 C 
ATOM     99  C   ALA A  13      -3.826  25.242 -10.650  1.00  0.00    +0.257 C 
ATOM    100  O   ALA A  13      -4.829  24.538 -10.757  1.00  0.00    -0.272 OA
ATOM    101  CB  ALA A  13      -4.437  26.800  -8.816  1.00  0.00    +0.027 C 
ATOM    102  N   GLY A  14      -3.058  25.564 -11.686  1.00  0.00    -0.200 N 
ATOM    103  CA  GLY A  14      -2.640  24.563 -12.664  1.00  0.00    +0.166 C 
ATOM    104  C   GLY A  14      -1.164  24.233 -12.506  1.00  0.00    +0.248 C 
ATOM    105  O   GLY A  14      -0.562  24.542 -11.479  1.00  0.00    -0.202 OA
ATOM    106  N   SER A  15      -0.582  23.606 -13.523  1.00  0.00    -0.177 NA
ATOM    107  CA  SER A  15       0.861  23.675 -13.732  1.00  0.00    +0.186 C 
ATOM    108  C   SER A  15       1.262  24.996 -14.369  1.00  0.00    +0.260 C 
ATOM    109  O   SER A  15       0.482  25.597 -15.106  1.00  0.00    -0.272 OA
ATOM    110  CB  SER A  15       1.332  22.526 -14.608  1.00  0.00    +0.209 C 
ATOM    111  OG  SER A  15       1.028  22.774 -15.971  1.00  0.00    -0.218 OA
ATOM    112  N   SER A  16       2.481  25.449 -14.087  1.00  0.00    -0.194 N 
ATOM    113  CA  SER A  16       3.170  26.384 -14.971  1.00  0.00    +0.205 C 
ATOM    114  C   SER A  16       4.305  25.703 -15.716  1.00  0.00    +0.264 C 
ATOM    115  O   SER A  16       4.985  24.840 -15.165  1.00  0.00    -0.271 OA
ATOM    116  CB  SER A  16       3.715  27.564 -14.184  1.00  0.00    +0.213 C 
ATOM    117  OG  SER A  16       4.951  27.999 -14.722  1.00  0.00    -0.218 OA
ATOM    118  N   ASP A  17       4.512  26.092 -16.972  1.00  0.00    -0.196 N 
ATOM    119  CA  ASP A  17       5.862  26.273 -17.499  1.00  0.00    +0.184 C 
ATOM    120  C   ASP A  17       6.277  27.734 -17.446  1.00  0.00    +0.262 C 
ATOM    121  O   ASP A  17       5.434  28.625 -17.528  1.00  0.00    -0.271 OA
ATOM    122  CB  ASP A  17       5.958  25.771 -18.929  1.00  0.00    +0.145 C 
ATOM    123  CG  ASP A  17       4.730  26.102 -19.761  1.00  0.00    +0.367 C 
ATOM    124  OD1 ASP A  17       3.648  26.341 -19.182  1.00  0.00    -0.246 OA
ATOM    125  OD2 ASP A  17       4.847  26.125 -21.005  1.00  0.00    -0.246 OA
ATOM    126  N   ALA A  18       7.577  27.981 -17.306  1.00  0.00    -0.196 N 
ATOM    127  CA  ALA A  18       8.494  27.894 -18.437  1.00  0.00    +0.173 C 
ATOM    128  C   ALA A  18       8.839  26.448 -18.753  1.00  0.00    +0.262 C 
ATOM    129  O   ALA A  18       9.137  25.666 -17.851  1.00  0.00    -0.271 OA
ATOM    130  CB  ALA A  18       9.770  28.672 -18.158  1.00  0.00    +0.033 C 
ATOM    131  N   ILE A  19       8.800  26.091 -20.033  1.00  0.00    -0.196 N 
ATOM    132  CA  ILE A  19       9.198  24.753 -20.462  1.00  0.00    +0.173 C 
ATOM    133  C   ILE A  19      10.512  24.829 -21.223  1.00  0.00    +0.262 C 
ATOM    134  O   ILE A  19      10.803  25.835 -21.868  1.00  0.00    -0.271 OA
ATOM    135  CB  ILE A  19       8.142  24.099 -21.336  1.00  0.00    +0.029 C 
ATOM    136  CG1 ILE A  19       7.922  24.907 -22.614  1.00  0.00    +0.002 C 
ATOM    137  CG2 ILE A  19       6.822  23.979 -20.579  1.00  0.00    +0.002 C 
ATOM    138  CD1 ILE A  19       7.043  24.211 -23.640  1.00  0.00    +0.000 C 
ATOM    139  N   ARG A  20      11.307  23.765 -21.149  1.00  0.00    -0.196 N 
ATOM    140  CA  ARG A  20      12.313  23.496 -22.170  1.00  0.00    +0.173 C 
ATOM    141  C   ARG A  20      11.663  23.102 -23.487  1.00  0.00    +0.262 C 
ATOM    142  O   ARG A  20      12.035  23.608 -24.544  1.00  0.00    -0.271 OA
ATOM    143  CB  ARG A  20      13.259  22.394 -21.722  1.00  0.00    +0.033 C 
ATOM    144  CG  ARG A  20      12.559  21.100 -21.340  1.00  0.00    +0.026 C 
ATOM    145  CD  ARG A  20      13.503  19.910 -21.395  1.00  0.00    +0.115 C 
ATOM    146  NE  ARG A  20      12.947  18.750 -20.703  1.00  0.00    -0.204 N 
ATOM    147  CZ  ARG A  20      13.460  18.209 -19.600  1.00  0.00    +0.260 C 
ATOM    148  NH1 ARG A  20      14.445  17.320 -19.676  1.00  0.00    -0.110 NA
ATOM    149  NH2 ARG A  20      12.981  18.564 -18.410  1.00  0.00    -0.087 N 
ATOM    150  N   ARG A  21      10.689  22.197 -23.424  1.00  0.00    -0.194 N 
ATOM    151  CA  ARG A  21      10.583  21.123 -24.408  1.00  0.00    +0.198 C 
ATOM    152  C   ARG A  21       9.755  21.562 -25.604  1.00  0.00    +0.384 C 
ATOM    153  O   ARG A  21       9.979  21.102 -26.722  1.00  0.00    -0.244 OA
ATOM    154  CB  ARG A  21       9.964  19.881 -23.790  1.00  0.00    +0.035 C 
ATOM    155  CG  ARG A  21      10.864  19.179 -22.788  1.00  0.00    +0.029 C 
ATOM    156  CD  ARG A  21      10.164  18.958 -21.457  1.00  0.00    +0.128 C 
ATOM    157  NE  ARG A  21      11.090  18.489 -20.431  1.00  0.00    -0.238 NA
ATOM    158  CZ  ARG A  21      10.742  18.142 -19.196  1.00  0.00    +0.257 C 
ATOM    159  NH1 ARG A  21       9.520  18.398 -18.739  1.00  0.00    -0.088 N 
ATOM    160  NH2 ARG A  21      11.625  17.531 -18.411  1.00  0.00    -0.088 N 
ATOM    161  OXT ARG A  21       8.850  22.385 -25.471  1.00  0.00    -0.244 OA
ATOM    162  H   MET A   1     -19.558  22.641  10.669  1.00  0.00    +0.000 HD
ATOM    163  H   MET A   1     -19.755  22.274  12.282  1.00  0.00    +0.000 HD
ATOM    164  H   LYS A   2     -16.414  25.039  11.157  1.00  0.00    +0.000 HD
ATOM    165  H   LYS A   2     -17.756  25.527   4.347  1.00  0.00    +0.000 HD
ATOM    166  H   GLN A   3     -13.319  23.379   8.978  1.00  0.00    +0.000 HD
ATOM    167  H   GLN A   3      -9.791  21.472   9.581  1.00  0.00    +0.000 HD
ATOM    168  H   GLN A   3      -8.722  20.608   8.573  1.00  0.00    +0.000 HD
ATOM    169  H   ALA A   4     -11.945  27.621   7.534  1.00  0.00    +0.000 HD
ATOM    170  H   VAL A   5      -8.734  24.581   5.556  1.00  0.00    +0.000 HD
ATOM    171  H   ASN A   6      -6.408  28.523   5.232  1.00  0.00    +0.000 HD
ATOM    172  H   ASN A   6      -7.627  34.070   4.027  1.00  0.00    +0.000 HD
ATOM    173  H   ASN A   6      -6.621  33.235   5.121  1.00  0.00    +0.000 HD
ATOM    174  H   ALA A   7      -5.714  27.635   2.680  1.00  0.00    +0.000 HD
ATOM    175  H   LEU A   8      -3.818  30.849   0.019  1.00  0.00    +0.000 HD
ATOM    176  H   LEU A   9      -3.321  30.619  -4.388  1.00  0.00    +0.000 HD
ATOM    177  H   VAL A  10       0.913  28.997  -3.739  1.00  0.00    +0.000 HD
ATOM    178  H   PHE A  11       3.609  29.421  -7.544  1.00  0.00    +0.000 HD
ATOM    179  H   PHE A  12      -0.126  27.138  -7.210  1.00  0.00    +0.000 HD
ATOM    180  H   ALA A  13      -2.121  27.105 -10.085  1.00  0.00    +0.000 HD
ATOM    181  H   GLY A  14      -2.763  26.497 -11.795  1.00  0.00    +0.000 HD
ATOM    182  H   SER A  15      -1.014  23.969 -14.373  1.00  0.00    +0.000 HD
ATOM    183  H   SER A  15       0.067  22.864 -16.076  1.00  0.00    +0.000 HD
ATOM    184  H   SER A  16       2.928  25.146 -13.263  1.00  0.00    +0.000 HD
ATOM    185  H   SER A  16       4.822  28.279 -15.642  1.00  0.00    +0.000 HD
ATOM    186  H   ASP A  17       3.740  26.261 -17.558  1.00  0.00    +0.000 HD
ATOM    187  H   ASP A  17       5.676  25.940 -21.401  1.00  0.00    +0.000 HD
ATOM    188  H   ALA A  18       7.927  28.227 -16.419  1.00  0.00    +0.000 HD
ATOM    189  H   ILE A  19       8.496  26.742 -20.706  1.00  0.00    +0.000 HD
ATOM    190  H   ARG A  20      11.214  23.146 -20.389  1.00  0.00    +0.000 HD
ATOM    191  H   ARG A  20      12.136  18.339 -21.079  1.00  0.00    +0.000 HD
ATOM    192  H   ARG A  20      14.817  16.926 -18.855  1.00  0.00    +0.000 HD
ATOM    193  H   ARG A  20      13.305  19.212 -17.745  1.00  0.00    +0.000 HD
ATOM    194  H   ARG A  21      10.026  22.253 -22.698  1.00  0.00    +0.000 HD
ATOM    195  H   ARG A  21      10.665  20.475 -26.842  1.00  0.00    +0.000 HD
ATOM    196  H   ARG A  21       8.864  18.850 -19.317  1.00  0.00    +0.000 HD
ATOM    197  H   ARG A  21       9.272  18.136 -17.824  1.00  0.00    +0.000 HD
ATOM    198  H   ARG A  21      11.518  16.675 -17.936  1.00  0.00    +0.000 HD
ENDROOT
TORSDOF 0
