REMARK  Name = /var/folders/yp/yjbh3p597675h2qddgqr02y00000gn/T/tmp1evvyxb_.pdb
REMARK   1 CREATED WITH OPENMM 8.6.1, 2026-10-07
REMARK                            x       y       z     vdW  Elec       q    Type
REMARK                         _______ _______ _______ _____ _____    ______ ____
ROOT
ATOM      1  N   MET A   1     -18.067  15.373  -7.265  1.00  0.00    -0.123 NA
ATOM      2  CA  MET A   1     -17.386  14.061  -7.307  1.00  0.00    +0.170 C 
ATOM      3  C   MET A   1     -17.789  13.308  -8.566  1.00  0.00    +0.259 C 
ATOM      4  O   MET A   1     -18.919  13.461  -9.048  1.00  0.00    -0.272 OA
ATOM      5  CB  MET A   1     -17.671  13.231  -6.043  1.00  0.00    +0.040 C 
ATOM      6  CG  MET A   1     -19.118  12.725  -5.940  1.00  0.00    +0.060 C 
ATOM      7  SD  MET A   1     -19.514  11.393  -7.097  1.00  0.00    -0.139 S 
ATOM      8  CE  MET A   1     -21.286  11.216  -6.901  1.00  0.00    +0.069 C 
ATOM      9  N   LYS A   2     -16.890  12.485  -9.111  1.00  0.00    -0.197 N 
ATOM     10  CA  LYS A   2     -17.159  11.746 -10.348  1.00  0.00    +0.173 C 
ATOM     11  C   LYS A   2     -18.289  10.735 -10.155  1.00  0.00    +0.262 C 
ATOM     12  O   LYS A   2     -18.251   9.935  -9.221  1.00  0.00    -0.271 OA
ATOM     13  CB  LYS A   2     -15.882  11.040 -10.820  1.00  0.00    +0.031 C 
ATOM     14  CG  LYS A   2     -16.047  10.459 -12.231  1.00  0.00    +0.004 C 
ATOM     15  CD  LYS A   2     -14.877   9.544 -12.616  1.00  0.00    +0.021 C 
ATOM     16  CE  LYS A   2     -13.978  10.274 -13.603  1.00  0.00    +0.109 C 
ATOM     17  NZ  LYS A   2     -12.800   9.497 -14.013  1.00  0.00    -0.131 NA
ATOM     18  N   GLN A   3     -19.238  10.709 -11.083  1.00  0.00    -0.196 N 
ATOM     19  CA  GLN A   3     -20.213   9.629 -11.179  1.00  0.00    +0.173 C 
ATOM     20  C   GLN A   3     -20.040   8.876 -12.493  1.00  0.00    +0.262 C 
ATOM     21  O   GLN A   3     -19.949   9.485 -13.562  1.00  0.00    -0.271 OA
ATOM     22  CB  GLN A   3     -21.631  10.183 -11.035  1.00  0.00    +0.041 C 
ATOM     23  CG  GLN A   3     -22.679   9.065 -11.000  1.00  0.00    +0.091 C 
ATOM     24  CD  GLN A   3     -24.092   9.614 -10.956  1.00  0.00    +0.261 C 
ATOM     25  OE1 GLN A   3     -24.616  10.157 -11.922  1.00  0.00    -0.272 OA
ATOM     26  NE2 GLN A   3     -24.759   9.487  -9.828  1.00  0.00    -0.088 N 
ATOM     27  N   ALA A   4     -20.043   7.550 -12.415  1.00  0.00    -0.196 N 
ATOM     28  CA  ALA A   4     -20.129   6.707 -13.590  1.00  0.00    +0.173 C 
ATOM     29  C   ALA A   4     -21.372   7.035 -14.432  1.00  0.00    +0.262 C 
ATOM     30  O   ALA A   4     -22.459   7.276 -13.906  1.00  0.00    -0.271 OA
ATOM     31  CB  ALA A   4     -20.151   5.249 -13.108  1.00  0.00    +0.033 C 
ATOM     32  N   VAL A   5     -21.222   6.954 -15.748  1.00  0.00    -0.196 N 
ATOM     33  CA  VAL A   5     -21.966   5.938 -16.510  1.00  0.00    +0.173 C 
ATOM     34  C   VAL A   5     -21.327   4.596 -16.251  1.00  0.00    +0.262 C 
ATOM     35  O   VAL A   5     -20.149   4.534 -16.339  1.00  0.00    -0.271 OA
ATOM     36  CB  VAL A   5     -21.899   6.224 -18.018  1.00  0.00    +0.029 C 
ATOM     37  CG1 VAL A   5     -22.665   7.512 -18.313  1.00  0.00    +0.002 C 
ATOM     38  CG2 VAL A   5     -20.477   6.371 -18.591  1.00  0.00    +0.002 C 
ATOM     39  N   ASN A   6     -22.018   3.518 -15.918  1.00  0.00    -0.196 N 
ATOM     40  CA  ASN A   6     -21.352   2.246 -15.587  1.00  0.00    +0.182 C 
ATOM     41  C   ASN A   6     -20.766   1.523 -16.803  1.00  0.00    +0.262 C 
ATOM     42  O   ASN A   6     -19.871   0.687 -16.665  1.00  0.00    -0.271 OA
ATOM     43  CB  ASN A   6     -22.332   1.332 -14.861  1.00  0.00    +0.120 C 
ATOM     44  CG  ASN A   6     -22.503   1.745 -13.416  1.00  0.00    +0.263 C 
ATOM     45  OD1 ASN A   6     -21.551   1.819 -12.648  1.00  0.00    -0.272 OA
ATOM     46  ND2 ASN A   6     -23.718   2.015 -13.003  1.00  0.00    -0.088 N 
ATOM     47  N   ALA A   7     -21.329   1.786 -17.981  1.00  0.00    -0.196 N 
ATOM     48  CA  ALA A   7     -21.181   0.889 -19.115  1.00  0.00    +0.173 C 
ATOM     49  C   ALA A   7     -19.716   0.696 -19.512  1.00  0.00    +0.262 C 
ATOM     50  O   ALA A   7     -19.226  -0.435 -19.547  1.00  0.00    -0.271 OA
ATOM     51  CB  ALA A   7     -22.047   1.411 -20.265  1.00  0.00    +0.033 C 
ATOM     52  N   LEU A   8     -19.034   1.795 -19.833  1.00  0.00    -0.196 N 
ATOM     53  CA  LEU A   8     -17.860   1.756 -20.710  1.00  0.00    +0.173 C 
ATOM     54  C   LEU A   8     -16.587   1.457 -19.925  1.00  0.00    +0.262 C 
ATOM     55  O   LEU A   8     -15.765   0.658 -20.371  1.00  0.00    -0.271 OA
ATOM     56  CB  LEU A   8     -17.754   3.074 -21.500  1.00  0.00    +0.031 C 
ATOM     57  CG  LEU A   8     -18.693   3.233 -22.699  1.00  0.00    +0.002 C 
ATOM     58  CD1 LEU A   8     -18.846   4.718 -23.022  1.00  0.00    +0.000 C 
ATOM     59  CD2 LEU A   8     -20.117   2.793 -22.424  1.00  0.00    +0.000 C 
ATOM     60  N   LEU A   9     -16.399   2.047 -18.742  1.00  0.00    -0.196 N 
ATOM     61  CA  LEU A   9     -16.310   3.509 -18.627  1.00  0.00    +0.173 C 
ATOM     62  C   LEU A   9     -15.040   4.025 -19.301  1.00  0.00    +0.262 C 
ATOM     63  O   LEU A   9     -14.283   3.277 -19.917  1.00  0.00    -0.271 OA
ATOM     64  CB  LEU A   9     -16.278   3.925 -17.159  1.00  0.00    +0.031 C 
ATOM     65  CG  LEU A   9     -17.646   3.999 -16.543  1.00  0.00    +0.002 C 
ATOM     66  CD1 LEU A   9     -17.720   5.266 -15.670  1.00  0.00    +0.000 C 
ATOM     67  CD2 LEU A   9     -17.865   2.825 -15.604  1.00  0.00    +0.000 C 
ATOM     68  N   VAL A  10     -14.816   5.327 -19.195  1.00  0.00    -0.196 N 
ATOM     69  CA  VAL A  10     -13.828   6.028 -19.997  1.00  0.00    +0.173 C 
ATOM     70  C   VAL A  10     -12.421   5.764 -19.480  1.00  0.00    +0.262 C 
ATOM     71  O   VAL A  10     -12.136   5.960 -18.295  1.00  0.00    -0.271 OA
ATOM     72  CB  VAL A  10     -14.118   7.537 -20.041  1.00  0.00    +0.029 C 
ATOM     73  CG1 VAL A  10     -13.598   8.117 -21.358  1.00  0.00    +0.002 C 
ATOM     74  CG2 VAL A  10     -15.617   7.854 -19.939  1.00  0.00    +0.002 C 
ATOM     75  N   PHE A  11     -11.525   5.356 -20.376  1.00  0.00    -0.196 N 
ATOM     76  CA  PHE A  11     -10.089   5.415 -20.124  1.00  0.00    +0.177 C 
ATOM     77  C   PHE A  11      -9.573   6.833 -20.386  1.00  0.00    +0.262 C 
ATOM     78  O   PHE A  11      -9.752   7.387 -21.473  1.00  0.00    -0.271 OA
ATOM     79  CB  PHE A  11      -9.354   4.389 -20.976  1.00  0.00    +0.057 C 
ATOM     80  CG  PHE A  11      -7.863   4.633 -21.031  1.00  0.00    -0.020 A 
ATOM     81  CD1 PHE A  11      -7.126   4.818 -19.846  1.00  0.00    -0.004 A 
ATOM     82  CE1 PHE A  11      -5.750   5.085 -19.912  1.00  0.00    -0.000 A 
ATOM     83  CD2 PHE A  11      -7.220   4.703 -22.276  1.00  0.00    -0.004 A 
ATOM     84  CE2 PHE A  11      -5.840   4.948 -22.339  1.00  0.00    -0.000 A 
ATOM     85  CZ  PHE A  11      -5.106   5.141 -21.158  1.00  0.00    -0.000 A 
ATOM     86  N   PHE A  12      -8.989   7.421 -19.344  1.00  0.00    -0.196 N 
ATOM     87  CA  PHE A  12      -9.347   8.773 -18.922  1.00  0.00    +0.177 C 
ATOM     88  C   PHE A  12      -8.707   9.872 -19.780  1.00  0.00    +0.262 C 
ATOM     89  O   PHE A  12      -9.382  10.850 -20.094  1.00  0.00    -0.271 OA
ATOM     90  CB  PHE A  12      -9.056   8.932 -17.415  1.00  0.00    +0.057 C 
ATOM     91  CG  PHE A  12      -7.672   8.499 -16.957  1.00  0.00    -0.020 A 
ATOM     92  CD1 PHE A  12      -7.381   7.154 -16.704  1.00  0.00    -0.004 A 
ATOM     93  CE1 PHE A  12      -6.065   6.772 -16.393  1.00  0.00    -0.000 A 
ATOM     94  CD2 PHE A  12      -6.674   9.445 -16.684  1.00  0.00    -0.004 A 
ATOM     95  CE2 PHE A  12      -5.322   9.065 -16.620  1.00  0.00    -0.000 A 
ATOM     96  CZ  PHE A  12      -5.024   7.714 -16.430  1.00  0.00    -0.000 A 
ATOM     97  N   ALA A  13      -7.458   9.737 -20.244  1.00  0.00    -0.196 N 
ATOM     98  CA  ALA A  13      -6.367  10.291 -19.473  1.00  0.00    +0.173 C 
ATOM     99  C   ALA A  13      -6.475  11.805 -19.243  1.00  0.00    +0.262 C 
ATOM    100  O   ALA A  13      -6.792  12.497 -20.207  1.00  0.00    -0.271 OA
ATOM    101  CB  ALA A  13      -4.981   9.831 -19.889  1.00  0.00    +0.033 C 
ATOM    102  N   GLY A  14      -6.150  12.346 -18.064  1.00  0.00    -0.194 N 
ATOM    103  CA  GLY A  14      -5.592  13.698 -17.979  1.00  0.00    +0.201 C 
ATOM    104  C   GLY A  14      -4.111  13.670 -18.361  1.00  0.00    +0.264 C 
ATOM    105  O   GLY A  14      -3.562  12.615 -18.697  1.00  0.00    -0.271 OA
ATOM    106  N   SER A  15      -3.442  14.818 -18.289  1.00  0.00    -0.194 N 
ATOM    107  CA  SER A  15      -1.991  14.870 -18.483  1.00  0.00    +0.205 C 
ATOM    108  C   SER A  15      -1.252  14.028 -17.436  1.00  0.00    +0.264 C 
ATOM    109  O   SER A  15      -1.725  13.856 -16.305  1.00  0.00    -0.271 OA
ATOM    110  CB  SER A  15      -1.489  16.315 -18.433  1.00  0.00    +0.213 C 
ATOM    111  OG  SER A  15      -1.522  16.830 -17.112  1.00  0.00    -0.218 OA
ATOM    112  N   SER A  16      -0.057  13.560 -17.797  1.00  0.00    -0.194 N 
ATOM    113  CA  SER A  16       1.032  13.435 -16.828  1.00  0.00    +0.205 C 
ATOM    114  C   SER A  16       1.429  14.822 -16.318  1.00  0.00    +0.264 C 
ATOM    115  O   SER A  16       1.340  15.823 -17.033  1.00  0.00    -0.271 OA
ATOM    116  CB  SER A  16       2.251  12.744 -17.438  1.00  0.00    +0.213 C 
ATOM    117  OG  SER A  16       2.936  13.603 -18.334  1.00  0.00    -0.218 OA
ATOM    118  N   ASP A  17       1.854  14.876 -15.067  1.00  0.00    -0.196 N 
ATOM    119  CA  ASP A  17       1.584  16.025 -14.210  1.00  0.00    +0.184 C 
ATOM    120  C   ASP A  17       2.848  16.822 -13.901  1.00  0.00    +0.262 C 
ATOM    121  O   ASP A  17       3.905  16.242 -13.631  1.00  0.00    -0.271 OA
ATOM    122  CB  ASP A  17       0.881  15.510 -12.938  1.00  0.00    +0.145 C 
ATOM    123  CG  ASP A  17       1.156  16.313 -11.655  1.00  0.00    +0.367 C 
ATOM    124  OD1 ASP A  17       2.296  16.731 -11.371  1.00  0.00    -0.246 OA
ATOM    125  OD2 ASP A  17       0.221  16.481 -10.846  1.00  0.00    -0.246 OA
ATOM    126  N   ALA A  18       2.688  18.144 -13.785  1.00  0.00    -0.196 N 
ATOM    127  CA  ALA A  18       3.526  18.956 -12.908  1.00  0.00    +0.173 C 
ATOM    128  C   ALA A  18       2.691  19.612 -11.797  1.00  0.00    +0.262 C 
ATOM    129  O   ALA A  18       1.643  20.208 -12.060  1.00  0.00    -0.271 OA
ATOM    130  CB  ALA A  18       4.273  19.999 -13.738  1.00  0.00    +0.033 C 
ATOM    131  N   ILE A  19       3.202  19.563 -10.567  1.00  0.00    -0.196 N 
ATOM    132  CA  ILE A  19       4.052  20.653 -10.081  1.00  0.00    +0.173 C 
ATOM    133  C   ILE A  19       5.419  20.073  -9.727  1.00  0.00    +0.262 C 
ATOM    134  O   ILE A  19       5.517  19.171  -8.893  1.00  0.00    -0.271 OA
ATOM    135  CB  ILE A  19       3.451  21.367  -8.854  1.00  0.00    +0.029 C 
ATOM    136  CG1 ILE A  19       2.046  21.904  -9.169  1.00  0.00    +0.002 C 
ATOM    137  CG2 ILE A  19       4.375  22.513  -8.396  1.00  0.00    +0.002 C 
ATOM    138  CD1 ILE A  19       1.344  22.522  -7.959  1.00  0.00    +0.000 C 
ATOM    139  N   ARG A  20       6.483  20.623 -10.316  1.00  0.00    -0.196 N 
ATOM    140  CA  ARG A  20       7.814  20.518  -9.701  1.00  0.00    +0.173 C 
ATOM    141  C   ARG A  20       8.000  21.578  -8.624  1.00  0.00    +0.262 C 
ATOM    142  O   ARG A  20       8.361  21.253  -7.497  1.00  0.00    -0.271 OA
ATOM    143  CB  ARG A  20       8.905  20.594 -10.768  1.00  0.00    +0.033 C 
ATOM    144  CG  ARG A  20      10.342  20.303 -10.323  1.00  0.00    +0.029 C 
ATOM    145  CD  ARG A  20      11.017  21.500  -9.659  1.00  0.00    +0.129 C 
ATOM    146  NE  ARG A  20      12.286  21.190  -9.038  1.00  0.00    -0.234 NA
ATOM    147  CZ  ARG A  20      13.151  22.072  -8.578  1.00  0.00    +0.284 C 
ATOM    148  NH1 ARG A  20      12.961  23.366  -8.624  1.00  0.00    -0.104 N 
ATOM    149  NH2 ARG A  20      14.261  21.640  -8.061  1.00  0.00    -0.104 N 
ATOM    150  N   ARG A  21       7.842  22.843  -9.031  1.00  0.00    -0.194 N 
ATOM    151  CA  ARG A  21       8.878  23.890  -8.922  1.00  0.00    +0.198 C 
ATOM    152  C   ARG A  21       8.828  24.681  -7.635  1.00  0.00    +0.384 C 
ATOM    153  O   ARG A  21       9.907  25.083  -7.158  1.00  0.00    -0.244 OA
ATOM    154  CB  ARG A  21       8.853  24.803 -10.153  1.00  0.00    +0.035 C 
ATOM    155  CG  ARG A  21       9.241  24.173 -11.500  1.00  0.00    +0.029 C 
ATOM    156  CD  ARG A  21       8.058  23.566 -12.274  1.00  0.00    +0.129 C 
ATOM    157  NE  ARG A  21       8.448  23.178 -13.638  1.00  0.00    -0.234 NA
ATOM    158  CZ  ARG A  21       9.469  22.440 -14.037  1.00  0.00    +0.284 C 
ATOM    159  NH1 ARG A  21      10.005  22.651 -15.197  1.00  0.00    -0.104 N 
ATOM    160  NH2 ARG A  21       9.982  21.470 -13.349  1.00  0.00    -0.104 N 
ATOM    161  OXT ARG A  21       7.726  24.916  -7.112  1.00  0.00    -0.244 OA
ATOM    162  H   MET A   1     -17.855  15.893  -8.117  1.00  0.00    +0.000 HD
ATOM    163  H   MET A   1     -17.739  15.900  -6.454  1.00  0.00    +0.000 HD
ATOM    164  H   LYS A   2     -16.019  12.372  -8.667  1.00  0.00    +0.000 HD
ATOM    165  H   LYS A   2     -13.102   8.648 -14.490  1.00  0.00    +0.000 HD
ATOM    166  H   LYS A   2     -12.254   9.248 -13.188  1.00  0.00    +0.000 HD
ATOM    167  H   GLN A   3     -19.286  11.448 -11.732  1.00  0.00    +0.000 HD
ATOM    168  H   GLN A   3     -25.679   9.831  -9.759  1.00  0.00    +0.000 HD
ATOM    169  H   GLN A   3     -24.338   9.049  -9.053  1.00  0.00    +0.000 HD
ATOM    170  H   ALA A   4     -19.984   7.125 -11.528  1.00  0.00    +0.000 HD
ATOM    171  H   VAL A   5     -20.614   7.573 -16.214  1.00  0.00    +0.000 HD
ATOM    172  H   ASN A   6     -23.001   3.567 -15.890  1.00  0.00    +0.000 HD
ATOM    173  H   ASN A   6     -24.476   1.953 -13.628  1.00  0.00    +0.000 HD
ATOM    174  H   ASN A   6     -23.873   2.281 -12.067  1.00  0.00    +0.000 HD
ATOM    175  H   ALA A   7     -21.860   2.608 -18.087  1.00  0.00    +0.000 HD
ATOM    176  H   LEU A   8     -19.327   2.661 -19.469  1.00  0.00    +0.000 HD
ATOM    177  H   LEU A   9     -16.318   1.493 -17.932  1.00  0.00    +0.000 HD
ATOM    178  H   VAL A  10     -15.344   5.843 -18.543  1.00  0.00    +0.000 HD
ATOM    179  H   PHE A  11     -11.842   5.002 -21.237  1.00  0.00    +0.000 HD
ATOM    180  H   PHE A  12      -8.297   6.932 -18.843  1.00  0.00    +0.000 HD
ATOM    181  H   ALA A  13      -7.287   9.270 -21.094  1.00  0.00    +0.000 HD
ATOM    182  H   GLY A  14      -6.288  11.827 -17.238  1.00  0.00    +0.000 HD
ATOM    183  H   SER A  15      -3.933  15.650 -18.102  1.00  0.00    +0.000 HD
ATOM    184  H   SER A  15      -0.945  16.296 -16.542  1.00  0.00    +0.000 HD
ATOM    185  H   SER A  16       0.095  13.293 -18.733  1.00  0.00    +0.000 HD
ATOM    186  H   SER A  16       3.248  14.386 -17.856  1.00  0.00    +0.000 HD
ATOM    187  H   ASP A  17       2.367  14.118 -14.704  1.00  0.00    +0.000 HD
ATOM    188  H   ASP A  17      -0.638  16.170 -11.052  1.00  0.00    +0.000 HD
ATOM    189  H   ALA A  18       1.981  18.586 -14.310  1.00  0.00    +0.000 HD
ATOM    190  H   ILE A  19       3.009  18.793  -9.984  1.00  0.00    +0.000 HD
ATOM    191  H   ARG A  20       6.375  21.102 -11.169  1.00  0.00    +0.000 HD
ATOM    192  H   ARG A  20      13.645  23.977  -8.264  1.00  0.00    +0.000 HD
ATOM    193  H   ARG A  20      12.136  23.730  -9.019  1.00  0.00    +0.000 HD
ATOM    194  H   ARG A  20      14.923  22.279  -7.711  1.00  0.00    +0.000 HD
ATOM    195  H   ARG A  20      14.442  20.673  -8.020  1.00  0.00    +0.000 HD
ATOM    196  H   ARG A  21       6.977  23.092  -9.430  1.00  0.00    +0.000 HD
ATOM    197  H   ARG A  21       9.664  23.373 -15.773  1.00  0.00    +0.000 HD
ATOM    198  H   ARG A  21      10.753  22.089 -15.503  1.00  0.00    +0.000 HD
ATOM    199  H   ARG A  21      10.744  20.961 -13.708  1.00  0.00    +0.000 HD
ATOM    200  H   ARG A  21       9.609  21.242 -12.467  1.00  0.00    +0.000 HD
ATOM    201  H   ARG A  21       6.940  24.592  -7.508  1.00  0.00    +0.000 HD
ENDROOT
TORSDOF 0
