REMARK  Name = /var/folders/yp/yjbh3p597675h2qddgqr02y00000gn/T/tmphn6jdeme.pdb
REMARK     285 UNITARY VALUES FOR THE UNIT CELL AUTOMATICALLY SET
REMARK     285 BY MDANALYSIS PDBWRITER BECAUSE UNIT CELL INFORMATION
REMARK     285 WAS MISSING.
REMARK     285 PROTEIN DATA BANK CONVENTIONS REQUIRE THAT
REMARK     285 CRYST1 RECORD IS INCLUDED, BUT THE VALUES ON
REMARK     285 THIS RECORD ARE MEANINGLESS.
REMARK     285 UNITARY VALUES FOR THE UNIT CELL AUTOMATICALLY SET
REMARK     285 BY MDANALYSIS PDBWRITER BECAUSE UNIT CELL INFORMATION
REMARK     285 WAS MISSING.
REMARK     285 PROTEIN DATA BANK CONVENTIONS REQUIRE THAT
REMARK     285 CRYST1 RECORD IS INCLUDED, BUT THE VALUES ON
REMARK     285 THIS RECORD ARE MEANINGLESS.
REMARK                            x       y       z     vdW  Elec       q    Type
REMARK                         _______ _______ _______ _____ _____    ______ ____
ROOT
ATOM      1  N   MET A   1     -16.109 -15.140  29.537  1.00  0.00    -0.123 NA
ATOM      2  CA  MET A   1     -15.911 -14.250  30.678  1.00  0.00    +0.170 C 
ATOM      3  C   MET A   1     -17.096 -13.314  30.848  1.00  0.00    +0.259 C 
ATOM      4  O   MET A   1     -17.757 -12.958  29.874  1.00  0.00    -0.272 OA
ATOM      5  CB  MET A   1     -14.639 -13.435  30.515  1.00  0.00    +0.040 C 
ATOM      6  CG  MET A   1     -13.399 -14.281  30.276  1.00  0.00    +0.060 C 
ATOM      7  SD  MET A   1     -11.985 -13.303  29.708  1.00  0.00    -0.139 S 
ATOM      8  CE  MET A   1     -12.662 -11.650  29.821  1.00  0.00    +0.069 C 
ATOM      9  N   LYS A   2     -17.366 -12.913  32.088  1.00  0.00    -0.197 N 
ATOM     10  CA  LYS A   2     -18.628 -12.255  32.416  1.00  0.00    +0.173 C 
ATOM     11  C   LYS A   2     -18.718 -10.888  31.758  1.00  0.00    +0.260 C 
ATOM     12  O   LYS A   2     -17.785 -10.090  31.848  1.00  0.00    -0.272 OA
ATOM     13  CB  LYS A   2     -18.786 -12.108  33.920  1.00  0.00    +0.031 C 
ATOM     14  CG  LYS A   2     -20.214 -11.836  34.364  1.00  0.00    +0.006 C 
ATOM     15  CD  LYS A   2     -20.555 -10.357  34.293  1.00  0.00    +0.050 C 
ATOM     16  CE  LYS A   2     -20.644  -9.888  32.914  1.00  0.00    +0.210 C 
ATOM     17  NZ  LYS A   2     -20.369 -10.627  31.843  1.00  0.00    -0.099 NA
ATOM     18  N   GLN A   3     -19.840 -10.616  31.099  1.00  0.00    -0.201 N 
ATOM     19  CA  GLN A   3     -20.389  -9.263  31.059  1.00  0.00    +0.138 C 
ATOM     20  C   GLN A   3     -21.113  -8.927  32.352  1.00  0.00    +0.211 C 
ATOM     21  O   GLN A   3     -21.908  -9.725  32.848  1.00  0.00    -0.322 OA
ATOM     22  CB  GLN A   3     -21.344  -9.101  29.887  1.00  0.00    +0.035 C 
ATOM     23  CG  GLN A   3     -20.674  -9.231  28.529  1.00  0.00    +0.090 C 
ATOM     24  CD  GLN A   3     -21.670  -9.385  27.392  1.00  0.00    +0.261 C 
ATOM     25  OE1 GLN A   3     -21.702 -10.418  26.708  1.00  0.00    -0.272 OA
ATOM     26  NE2 GLN A   3     -22.493  -8.361  27.182  1.00  0.00    -0.088 N 
ATOM     27  N   ALA A   4     -20.837  -7.749  32.901  1.00  0.00    -0.182 NA
ATOM     28  CA  ALA A   4     -21.845  -7.007  33.654  1.00  0.00    +0.153 C 
ATOM     29  C   ALA A   4     -23.031  -6.649  32.775  1.00  0.00    +0.258 C 
ATOM     30  O   ALA A   4     -22.862  -6.289  31.611  1.00  0.00    -0.272 OA
ATOM     31  CB  ALA A   4     -21.251  -5.739  34.246  1.00  0.00    +0.029 C 
ATOM     32  N   VAL A   5     -24.236  -6.747  33.330  1.00  0.00    -0.197 N 
ATOM     33  CA  VAL A   5     -25.393  -6.057  32.764  1.00  0.00    +0.173 C 
ATOM     34  C   VAL A   5     -25.829  -4.937  33.695  1.00  0.00    +0.262 C 
ATOM     35  O   VAL A   5     -25.769  -5.081  34.915  1.00  0.00    -0.271 OA
ATOM     36  CB  VAL A   5     -26.557  -7.004  32.528  1.00  0.00    +0.029 C 
ATOM     37  CG1 VAL A   5     -26.149  -8.141  31.594  1.00  0.00    +0.002 C 
ATOM     38  CG2 VAL A   5     -27.019  -7.619  33.847  1.00  0.00    +0.002 C 
ATOM     39  N   ASN A   6     -26.270  -3.822  33.121  1.00  0.00    -0.196 N 
ATOM     40  CA  ASN A   6     -27.192  -3.861  31.989  1.00  0.00    +0.182 C 
ATOM     41  C   ASN A   6     -26.463  -4.161  30.689  1.00  0.00    +0.262 C 
ATOM     42  O   ASN A   6     -27.092  -4.472  29.678  1.00  0.00    -0.271 OA
ATOM     43  CB  ASN A   6     -27.948  -2.550  31.856  1.00  0.00    +0.120 C 
ATOM     44  CG  ASN A   6     -28.267  -2.202  30.412  1.00  0.00    +0.263 C 
ATOM     45  OD1 ASN A   6     -27.429  -2.358  29.525  1.00  0.00    -0.272 OA
ATOM     46  ND2 ASN A   6     -29.486  -1.725  30.172  1.00  0.00    -0.088 N 
ATOM     47  N   ALA A   7     -25.137  -4.067  30.713  1.00  0.00    -0.196 N 
ATOM     48  CA  ALA A   7     -24.406  -3.344  29.676  1.00  0.00    +0.173 C 
ATOM     49  C   ALA A   7     -24.624  -3.977  28.312  1.00  0.00    +0.262 C 
ATOM     50  O   ALA A   7     -24.529  -5.195  28.166  1.00  0.00    -0.271 OA
ATOM     51  CB  ALA A   7     -22.919  -3.309  29.988  1.00  0.00    +0.033 C 
ATOM     52  N   LEU A   8     -24.917  -3.151  27.311  1.00  0.00    -0.196 N 
ATOM     53  CA  LEU A   8     -24.569  -3.475  25.931  1.00  0.00    +0.173 C 
ATOM     54  C   LEU A   8     -23.170  -2.984  25.596  1.00  0.00    +0.262 C 
ATOM     55  O   LEU A   8     -22.713  -1.982  26.143  1.00  0.00    -0.271 OA
ATOM     56  CB  LEU A   8     -25.568  -2.860  24.965  1.00  0.00    +0.031 C 
ATOM     57  CG  LEU A   8     -27.023  -3.300  25.130  1.00  0.00    +0.002 C 
ATOM     58  CD1 LEU A   8     -27.888  -2.689  24.033  1.00  0.00    +0.000 C 
ATOM     59  CD2 LEU A   8     -27.658  -2.613  26.335  1.00  0.00    +0.000 C 
ATOM     60  N   LEU A   9     -22.490  -3.689  24.696  1.00  0.00    -0.196 N 
ATOM     61  CA  LEU A   9     -21.764  -3.037  23.610  1.00  0.00    +0.173 C 
ATOM     62  C   LEU A   9     -22.723  -2.324  22.670  1.00  0.00    +0.262 C 
ATOM     63  O   LEU A   9     -23.849  -2.775  22.466  1.00  0.00    -0.271 OA
ATOM     64  CB  LEU A   9     -20.944  -4.048  22.827  1.00  0.00    +0.031 C 
ATOM     65  CG  LEU A   9     -19.485  -3.672  22.561  1.00  0.00    +0.002 C 
ATOM     66  CD1 LEU A   9     -18.669  -4.918  22.235  1.00  0.00    +0.000 C 
ATOM     67  CD2 LEU A   9     -18.790  -3.271  23.859  1.00  0.00    +0.000 C 
ATOM     68  N   VAL A  10     -22.278  -1.211  22.096  1.00  0.00    -0.196 N 
ATOM     69  CA  VAL A  10     -21.802  -1.203  20.716  1.00  0.00    +0.173 C 
ATOM     70  C   VAL A  10     -20.368  -0.703  20.669  1.00  0.00    +0.262 C 
ATOM     71  O   VAL A  10     -20.113   0.484  20.864  1.00  0.00    -0.271 OA
ATOM     72  CB  VAL A  10     -22.672  -0.334  19.821  1.00  0.00    +0.029 C 
ATOM     73  CG1 VAL A  10     -23.669  -1.190  19.044  1.00  0.00    +0.002 C 
ATOM     74  CG2 VAL A  10     -23.463   0.668  20.658  1.00  0.00    +0.002 C 
ATOM     75  N   PHE A  11     -19.429  -1.608  20.410  1.00  0.00    -0.196 N 
ATOM     76  CA  PHE A  11     -18.224  -1.262  19.662  1.00  0.00    +0.173 C 
ATOM     77  C   PHE A  11     -18.483  -1.327  18.165  1.00  0.00    +0.262 C 
ATOM     78  O   PHE A  11     -17.992  -0.488  17.410  1.00  0.00    -0.271 OA
ATOM     79  CB  PHE A  11     -17.076  -2.192  20.020  1.00  0.00    +0.040 C 
ATOM     80  CG  PHE A  11     -17.087  -3.487  19.263  1.00  0.00    +0.045 C 
ATOM     81  CD1 PHE A  11     -16.676  -3.519  17.935  1.00  0.00    -0.026 C 
ATOM     82  CE1 PHE A  11     -16.686  -4.719  17.234  1.00  0.00    -0.027 C 
ATOM     83  CD2 PHE A  11     -17.508  -4.655  19.889  1.00  0.00    -0.030 C 
ATOM     84  CE2 PHE A  11     -17.518  -5.855  19.187  1.00  0.00    -0.041 C 
ATOM     85  CZ  PHE A  11     -17.106  -5.887  17.860  1.00  0.00    +0.034 C 
ATOM     86  N   PHE A  12     -19.252  -2.322  17.736  1.00  0.00    -0.196 N 
ATOM     87  CA  PHE A  12     -18.917  -3.077  16.532  1.00  0.00    +0.173 C 
ATOM     88  C   PHE A  12     -19.311  -2.303  15.283  1.00  0.00    +0.262 C 
ATOM     89  O   PHE A  12     -18.612  -2.352  14.273  1.00  0.00    -0.271 OA
ATOM     90  CB  PHE A  12     -19.610  -4.430  16.528  1.00  0.00    +0.036 C 
ATOM     91  CG  PHE A  12     -18.964  -5.444  17.424  1.00  0.00    +0.028 C 
ATOM     92  CD1 PHE A  12     -17.633  -5.795  17.229  1.00  0.00    +0.008 C 
ATOM     93  CE1 PHE A  12     -17.033  -6.735  18.059  1.00  0.00    +0.016 C 
ATOM     94  CD2 PHE A  12     -19.695  -6.034  18.448  1.00  0.00    -0.030 C 
ATOM     95  CE2 PHE A  12     -19.095  -6.973  19.279  1.00  0.00    -0.027 C 
ATOM     96  CZ  PHE A  12     -17.764  -7.324  19.083  1.00  0.00    +0.041 C 
ATOM     97  N   ALA A  13     -20.430  -1.588  15.352  1.00  0.00    -0.196 N 
ATOM     98  CA  ALA A  13     -21.402  -1.589  14.264  1.00  0.00    +0.173 C 
ATOM     99  C   ALA A  13     -20.791  -1.034  12.985  1.00  0.00    +0.262 C 
ATOM    100  O   ALA A  13     -21.327  -1.240  11.898  1.00  0.00    -0.271 OA
ATOM    101  CB  ALA A  13     -22.631  -0.775  14.634  1.00  0.00    +0.033 C 
ATOM    102  N   GLY A  14     -19.671  -0.331  13.115  1.00  0.00    -0.194 N 
ATOM    103  CA  GLY A  14     -19.700   1.117  13.303  1.00  0.00    +0.201 C 
ATOM    104  C   GLY A  14     -19.740   1.837  11.965  1.00  0.00    +0.264 C 
ATOM    105  O   GLY A  14     -20.197   1.277  10.968  1.00  0.00    -0.271 OA
ATOM    106  N   SER A  15     -19.261   3.077  11.941  1.00  0.00    -0.194 N 
ATOM    107  CA  SER A  15     -19.165   3.830  10.694  1.00  0.00    +0.205 C 
ATOM    108  C   SER A  15     -18.067   3.278   9.799  1.00  0.00    +0.264 C 
ATOM    109  O   SER A  15     -17.041   2.805  10.289  1.00  0.00    -0.271 OA
ATOM    110  CB  SER A  15     -18.900   5.301  10.974  1.00  0.00    +0.213 C 
ATOM    111  OG  SER A  15     -17.551   5.504  11.357  1.00  0.00    -0.218 OA
ATOM    112  N   SER A  16     -18.280   3.338   8.488  1.00  0.00    -0.194 N 
ATOM    113  CA  SER A  16     -17.195   3.137   7.531  1.00  0.00    +0.205 C 
ATOM    114  C   SER A  16     -16.139   4.223   7.661  1.00  0.00    +0.264 C 
ATOM    115  O   SER A  16     -16.463   5.386   7.892  1.00  0.00    -0.271 OA
ATOM    116  CB  SER A  16     -17.731   3.117   6.109  1.00  0.00    +0.213 C 
ATOM    117  OG  SER A  16     -17.640   4.403   5.520  1.00  0.00    -0.218 OA
ATOM    118  N   ASP A  17     -14.872   3.844   7.511  1.00  0.00    -0.196 N 
ATOM    119  CA  ASP A  17     -13.873   4.113   8.540  1.00  0.00    +0.184 C 
ATOM    120  C   ASP A  17     -13.534   5.594   8.597  1.00  0.00    +0.262 C 
ATOM    121  O   ASP A  17     -13.335   6.148   9.677  1.00  0.00    -0.271 OA
ATOM    122  CB  ASP A  17     -12.604   3.313   8.288  1.00  0.00    +0.145 C 
ATOM    123  CG  ASP A  17     -11.578   3.458   9.398  1.00  0.00    +0.367 C 
ATOM    124  OD1 ASP A  17     -11.970   3.609  10.576  1.00  0.00    -0.246 OA
ATOM    125  OD2 ASP A  17     -10.366   3.421   9.091  1.00  0.00    -0.246 OA
ATOM    126  N   ALA A  18     -13.466   6.235   7.433  1.00  0.00    -0.196 N 
ATOM    127  CA  ALA A  18     -12.214   6.814   6.956  1.00  0.00    +0.173 C 
ATOM    128  C   ALA A  18     -12.362   8.305   6.702  1.00  0.00    +0.262 C 
ATOM    129  O   ALA A  18     -13.437   8.771   6.327  1.00  0.00    -0.271 OA
ATOM    130  CB  ALA A  18     -11.752   6.125   5.682  1.00  0.00    +0.033 C 
ATOM    131  N   ILE A  19     -11.283   9.057   6.905  1.00  0.00    -0.196 N 
ATOM    132  CA  ILE A  19     -11.368  10.512   6.963  1.00  0.00    +0.173 C 
ATOM    133  C   ILE A  19     -10.644  11.117   5.772  1.00  0.00    +0.262 C 
ATOM    134  O   ILE A  19      -9.470  10.827   5.542  1.00  0.00    -0.271 OA
ATOM    135  CB  ILE A  19     -10.779  11.064   8.250  1.00  0.00    +0.037 C 
ATOM    136  CG1 ILE A  19     -11.380  10.361   9.465  1.00  0.00    +0.002 C 
ATOM    137  CG2 ILE A  19     -11.037  12.565   8.354  1.00  0.00    +0.096 C 
ATOM    138  CD1 ILE A  19     -10.872  10.887  10.798  1.00  0.00    +0.000 C 
ATOM    139  N   ARG A  20     -11.342  11.957   5.013  1.00  0.00    -0.196 N 
ATOM    140  CA  ARG A  20     -10.771  13.218   4.551  1.00  0.00    +0.173 C 
ATOM    141  C   ARG A  20     -10.681  14.224   5.687  1.00  0.00    +0.261 C 
ATOM    142  O   ARG A  20     -10.060  15.276   5.543  1.00  0.00    -0.271 OA
ATOM    143  CB  ARG A  20     -11.594  13.804   3.417  1.00  0.00    +0.033 C 
ATOM    144  CG  ARG A  20     -11.471  13.040   2.108  1.00  0.00    +0.029 C 
ATOM    145  CD  ARG A  20     -12.517  13.478   1.097  1.00  0.00    +0.129 C 
ATOM    146  NE  ARG A  20     -12.153  14.739   0.456  1.00  0.00    -0.234 NA
ATOM    147  CZ  ARG A  20     -12.400  15.945   0.962  1.00  0.00    +0.284 C 
ATOM    148  NH1 ARG A  20     -12.987  16.076   2.147  1.00  0.00    -0.104 N 
ATOM    149  NH2 ARG A  20     -12.055  17.029   0.272  1.00  0.00    -0.104 N 
ATOM    150  N   ARG A  21     -11.303  13.903   6.818  1.00  0.00    -0.198 N 
ATOM    151  CA  ARG A  21     -11.277  14.790   7.979  1.00  0.00    +0.179 C 
ATOM    152  C   ARG A  21     -10.369  14.237   9.066  1.00  0.00    +0.369 C 
ATOM    153  O   ARG A  21      -9.155  14.427   9.023  1.00  0.00    -0.274 OA
ATOM    154  CB  ARG A  21     -12.675  14.992   8.539  1.00  0.00    +0.032 C 
ATOM    155  CG  ARG A  21     -13.458  16.099   7.853  1.00  0.00    +0.028 C 
ATOM    156  CD  ARG A  21     -14.823  16.304   8.489  1.00  0.00    +0.129 C 
ATOM    157  NE  ARG A  21     -15.582  17.352   7.812  1.00  0.00    -0.234 NA
ATOM    158  CZ  ARG A  21     -16.124  18.406   8.415  1.00  0.00    +0.284 C 
ATOM    159  NH1 ARG A  21     -16.714  18.279   9.601  1.00  0.00    -0.104 N 
ATOM    160  NH2 ARG A  21     -16.074  19.597   7.827  1.00  0.00    -0.104 N 
ATOM    161  OXT ARG A  21     -10.838  13.592  10.001  1.00  0.00    -0.274 OA
ATOM    162  H   MET A   1     -16.968 -15.676  29.669  1.00  0.00    +0.000 HD
ATOM    163  H   MET A   1     -15.318 -15.779  29.462  1.00  0.00    +0.000 HD
ATOM    164  H   LYS A   2     -16.702 -13.065  32.798  1.00  0.00    +0.000 HD
ATOM    165  H   LYS A   2     -21.295 -10.731  31.428  1.00  0.00    +0.000 HD
ATOM    166  H   GLN A   3     -23.159  -8.405  26.459  1.00  0.00    +0.000 HD
ATOM    167  H   GLN A   3     -22.435  -7.558  27.749  1.00  0.00    +0.000 HD
ATOM    168  H   ALA A   4     -20.056  -7.903  33.539  1.00  0.00    +0.000 HD
ATOM    169  H   VAL A   5     -24.350  -7.295  34.140  1.00  0.00    +0.000 HD
ATOM    170  H   ASN A   6     -25.969  -2.951  33.467  1.00  0.00    +0.000 HD
ATOM    171  H   ASN A   6     -29.748  -1.482  29.254  1.00  0.00    +0.000 HD
ATOM    172  H   ASN A   6     -30.126  -1.616  30.911  1.00  0.00    +0.000 HD
ATOM    173  H   ALA A   7     -24.638  -4.495  31.446  1.00  0.00    +0.000 HD
ATOM    174  H   LEU A   8     -25.379  -2.303  27.505  1.00  0.00    +0.000 HD
ATOM    175  H   LEU A   9     -22.476  -4.671  24.764  1.00  0.00    +0.000 HD
ATOM    176  H   VAL A  10     -22.269  -0.373  22.614  1.00  0.00    +0.000 HD
ATOM    177  H   PHE A  11     -19.548  -2.531  20.731  1.00  0.00    +0.000 HD
ATOM    178  H   PHE A  12     -20.065  -2.555  18.241  1.00  0.00    +0.000 HD
ATOM    179  H   ALA A  13     -20.606  -1.045  16.155  1.00  0.00    +0.000 HD
ATOM    180  H   GLY A  14     -18.804  -0.796  13.085  1.00  0.00    +0.000 HD
ATOM    181  H   SER A  15     -18.964   3.495  12.781  1.00  0.00    +0.000 HD
ATOM    182  H   SER A  15     -17.365   5.001  12.165  1.00  0.00    +0.000 HD
ATOM    183  H   SER A  16     -19.188   3.520   8.155  1.00  0.00    +0.000 HD
ATOM    184  H   SER A  16     -16.711   4.681   5.492  1.00  0.00    +0.000 HD
ATOM    185  H   ASP A  17     -14.603   3.372   6.690  1.00  0.00    +0.000 HD
ATOM    186  H   ASP A  17     -10.112   3.307   8.196  1.00  0.00    +0.000 HD
ATOM    187  H   ALA A  18     -14.277   6.322   6.883  1.00  0.00    +0.000 HD
ATOM    188  H   ILE A  19     -10.407   8.621   7.018  1.00  0.00    +0.000 HD
ATOM    189  H   ARG A  20     -12.265  11.724   4.759  1.00  0.00    +0.000 HD
ATOM    190  H   ARG A  20     -13.165  16.972   2.512  1.00  0.00    +0.000 HD
ATOM    191  H   ARG A  20     -13.243  15.276   2.660  1.00  0.00    +0.000 HD
ATOM    192  H   ARG A  20     -12.235  17.924   0.639  1.00  0.00    +0.000 HD
ATOM    193  H   ARG A  20     -11.620  16.935  -0.606  1.00  0.00    +0.000 HD
ATOM    194  H   ARG A  21     -11.790  13.050   6.874  1.00  0.00    +0.000 HD
ATOM    195  H   ARG A  21      -8.782  14.917   8.316  1.00  0.00    +0.000 HD
ATOM    196  H   ARG A  21     -17.113  19.066  10.039  1.00  0.00    +0.000 HD
ATOM    197  H   ARG A  21     -16.753  17.399  10.040  1.00  0.00    +0.000 HD
ATOM    198  H   ARG A  21     -16.473  20.381   8.268  1.00  0.00    +0.000 HD
ATOM    199  H   ARG A  21     -15.637  19.695   6.950  1.00  0.00    +0.000 HD
ATOM    200  H   ARG A  21     -11.761  13.438  10.048  1.00  0.00    +0.000 HD
ENDROOT
TORSDOF 0
