REMARK  Name = /var/folders/yp/yjbh3p597675h2qddgqr02y00000gn/T/tmplxnnkppq.pdb
REMARK     285 UNITARY VALUES FOR THE UNIT CELL AUTOMATICALLY SET
REMARK     285 BY MDANALYSIS PDBWRITER BECAUSE UNIT CELL INFORMATION
REMARK     285 WAS MISSING.
REMARK     285 PROTEIN DATA BANK CONVENTIONS REQUIRE THAT
REMARK     285 CRYST1 RECORD IS INCLUDED, BUT THE VALUES ON
REMARK     285 THIS RECORD ARE MEANINGLESS.
REMARK     285 UNITARY VALUES FOR THE UNIT CELL AUTOMATICALLY SET
REMARK     285 BY MDANALYSIS PDBWRITER BECAUSE UNIT CELL INFORMATION
REMARK     285 WAS MISSING.
REMARK     285 PROTEIN DATA BANK CONVENTIONS REQUIRE THAT
REMARK     285 CRYST1 RECORD IS INCLUDED, BUT THE VALUES ON
REMARK     285 THIS RECORD ARE MEANINGLESS.
REMARK                            x       y       z     vdW  Elec       q    Type
REMARK                         _______ _______ _______ _____ _____    ______ ____
ROOT
ATOM      1  N   MET A   1     -15.738   3.856   9.918  1.00  0.00    -0.123 NA
ATOM      2  CA  MET A   1     -17.004   3.645  10.616  1.00  0.00    +0.170 C 
ATOM      3  C   MET A   1     -17.891   2.677   9.851  1.00  0.00    +0.259 C 
ATOM      4  O   MET A   1     -17.772   2.550   8.633  1.00  0.00    -0.272 OA
ATOM      5  CB  MET A   1     -17.739   4.960  10.814  1.00  0.00    +0.040 C 
ATOM      6  CG  MET A   1     -16.906   6.027  11.504  1.00  0.00    +0.060 C 
ATOM      7  SD  MET A   1     -17.146   7.673  10.789  1.00  0.00    -0.139 S 
ATOM      8  CE  MET A   1     -18.586   7.381   9.767  1.00  0.00    +0.069 C 
ATOM      9  N   LYS A   2     -18.783   1.995  10.563  1.00  0.00    -0.197 N 
ATOM     10  CA  LYS A   2     -19.568   0.918   9.967  1.00  0.00    +0.173 C 
ATOM     11  C   LYS A   2     -20.381   1.423   8.786  1.00  0.00    +0.262 C 
ATOM     12  O   LYS A   2     -21.179   2.348   8.927  1.00  0.00    -0.271 OA
ATOM     13  CB  LYS A   2     -20.500   0.297  10.995  1.00  0.00    +0.031 C 
ATOM     14  CG  LYS A   2     -21.219  -0.947  10.498  1.00  0.00    +0.009 C 
ATOM     15  CD  LYS A   2     -22.481  -1.226  11.297  1.00  0.00    +0.049 C 
ATOM     16  CE  LYS A   2     -22.321  -0.861  12.702  1.00  0.00    +0.096 C 
ATOM     17  NZ  LYS A   2     -21.459  -1.432  13.540  1.00  0.00    -0.151 NA
ATOM     18  N   GLN A   3     -20.179   0.817   7.620  1.00  0.00    -0.196 N 
ATOM     19  CA  GLN A   3     -21.291   0.460   6.744  1.00  0.00    +0.173 C 
ATOM     20  C   GLN A   3     -22.032  -0.758   7.271  1.00  0.00    +0.262 C 
ATOM     21  O   GLN A   3     -21.417  -1.680   7.802  1.00  0.00    -0.271 OA
ATOM     22  CB  GLN A   3     -20.803   0.188   5.332  1.00  0.00    +0.041 C 
ATOM     23  CG  GLN A   3     -20.374   1.438   4.579  1.00  0.00    +0.091 C 
ATOM     24  CD  GLN A   3     -19.601   1.122   3.308  1.00  0.00    +0.261 C 
ATOM     25  OE1 GLN A   3     -19.293  -0.045   3.024  1.00  0.00    -0.272 OA
ATOM     26  NE2 GLN A   3     -19.284   2.157   2.536  1.00  0.00    -0.088 N 
ATOM     27  N   ALA A   4     -23.354  -0.760   7.124  1.00  0.00    -0.196 N 
ATOM     28  CA  ALA A   4     -24.101  -2.008   6.989  1.00  0.00    +0.173 C 
ATOM     29  C   ALA A   4     -23.538  -2.864   5.866  1.00  0.00    +0.262 C 
ATOM     30  O   ALA A   4     -23.117  -2.343   4.834  1.00  0.00    -0.271 OA
ATOM     31  CB  ALA A   4     -25.572  -1.730   6.728  1.00  0.00    +0.033 C 
ATOM     32  N   VAL A   5     -23.530  -4.178   6.065  1.00  0.00    -0.196 N 
ATOM     33  CA  VAL A   5     -23.404  -5.113   4.951  1.00  0.00    +0.173 C 
ATOM     34  C   VAL A   5     -24.641  -5.993   4.875  1.00  0.00    +0.262 C 
ATOM     35  O   VAL A   5     -25.109  -6.500   5.893  1.00  0.00    -0.271 OA
ATOM     36  CB  VAL A   5     -22.168  -5.989   5.082  1.00  0.00    +0.029 C 
ATOM     37  CG1 VAL A   5     -21.495  -6.181   3.725  1.00  0.00    +0.002 C 
ATOM     38  CG2 VAL A   5     -21.155  -5.342   6.023  1.00  0.00    +0.002 C 
ATOM     39  N   ASN A   6     -25.172  -6.172   3.669  1.00  0.00    -0.196 N 
ATOM     40  CA  ASN A   6     -25.840  -7.421   3.311  1.00  0.00    +0.182 C 
ATOM     41  C   ASN A   6     -24.837  -8.536   3.059  1.00  0.00    +0.262 C 
ATOM     42  O   ASN A   6     -23.729  -8.285   2.588  1.00  0.00    -0.271 OA
ATOM     43  CB  ASN A   6     -26.713  -7.237   2.081  1.00  0.00    +0.120 C 
ATOM     44  CG  ASN A   6     -27.848  -6.252   2.312  1.00  0.00    +0.263 C 
ATOM     45  OD1 ASN A   6     -28.887  -6.607   2.867  1.00  0.00    -0.272 OA
ATOM     46  ND2 ASN A   6     -27.651  -5.009   1.883  1.00  0.00    -0.088 N 
ATOM     47  N   ALA A   7     -25.226  -9.768   3.376  1.00  0.00    -0.196 N 
ATOM     48  CA  ALA A   7     -24.425 -10.934   3.013  1.00  0.00    +0.173 C 
ATOM     49  C   ALA A   7     -24.354 -11.100   1.503  1.00  0.00    +0.262 C 
ATOM     50  O   ALA A   7     -25.370 -11.023   0.818  1.00  0.00    -0.271 OA
ATOM     51  CB  ALA A   7     -24.997 -12.197   3.636  1.00  0.00    +0.033 C 
ATOM     52  N   LEU A   8     -23.148 -11.326   0.986  1.00  0.00    -0.196 N 
ATOM     53  CA  LEU A   8     -22.981 -12.111  -0.233  1.00  0.00    +0.173 C 
ATOM     54  C   LEU A   8     -23.054 -13.600   0.065  1.00  0.00    +0.262 C 
ATOM     55  O   LEU A   8     -22.400 -14.084   0.988  1.00  0.00    -0.271 OA
ATOM     56  CB  LEU A   8     -21.654 -11.792  -0.901  1.00  0.00    +0.031 C 
ATOM     57  CG  LEU A   8     -21.470 -10.351  -1.381  1.00  0.00    +0.002 C 
ATOM     58  CD1 LEU A   8     -20.027 -10.116  -1.809  1.00  0.00    +0.000 C 
ATOM     59  CD2 LEU A   8     -21.523  -9.383  -0.203  1.00  0.00    +0.000 C 
ATOM     60  N   LEU A   9     -23.849 -14.327  -0.715  1.00  0.00    -0.196 N 
ATOM     61  CA  LEU A   9     -24.203 -15.700  -0.372  1.00  0.00    +0.173 C 
ATOM     62  C   LEU A   9     -23.438 -16.690  -1.238  1.00  0.00    +0.262 C 
ATOM     63  O   LEU A   9     -23.146 -16.409  -2.398  1.00  0.00    -0.271 OA
ATOM     64  CB  LEU A   9     -25.695 -15.931  -0.537  1.00  0.00    +0.031 C 
ATOM     65  CG  LEU A   9     -26.613 -14.949   0.196  1.00  0.00    +0.002 C 
ATOM     66  CD1 LEU A   9     -27.880 -15.658   0.661  1.00  0.00    +0.000 C 
ATOM     67  CD2 LEU A   9     -27.242 -13.968  -0.787  1.00  0.00    +0.000 C 
ATOM     68  N   VAL A  10     -23.112 -17.849  -0.671  1.00  0.00    -0.196 N 
ATOM     69  CA  VAL A  10     -23.601 -19.117  -1.203  1.00  0.00    +0.173 C 
ATOM     70  C   VAL A  10     -24.730 -19.640  -0.329  1.00  0.00    +0.262 C 
ATOM     71  O   VAL A  10     -24.763 -19.377   0.872  1.00  0.00    -0.271 OA
ATOM     72  CB  VAL A  10     -22.500 -20.160  -1.287  1.00  0.00    +0.029 C 
ATOM     73  CG1 VAL A  10     -21.278 -19.596  -2.009  1.00  0.00    +0.002 C 
ATOM     74  CG2 VAL A  10     -22.063 -20.589   0.112  1.00  0.00    +0.002 C 
ATOM     75  N   PHE A  11     -25.657 -20.382  -0.930  1.00  0.00    -0.196 N 
ATOM     76  CA  PHE A  11     -26.367 -21.438  -0.215  1.00  0.00    +0.177 C 
ATOM     77  C   PHE A  11     -25.592 -22.743  -0.272  1.00  0.00    +0.262 C 
ATOM     78  O   PHE A  11     -25.242 -23.215  -1.353  1.00  0.00    -0.271 OA
ATOM     79  CB  PHE A  11     -27.756 -21.645  -0.794  1.00  0.00    +0.057 C 
ATOM     80  CG  PHE A  11     -28.638 -22.524   0.043  1.00  0.00    -0.020 A 
ATOM     81  CD1 PHE A  11     -28.649 -23.898  -0.166  1.00  0.00    -0.005 A 
ATOM     82  CE1 PHE A  11     -29.468 -24.713   0.609  1.00  0.00    -0.005 A 
ATOM     83  CD2 PHE A  11     -29.445 -21.963   1.027  1.00  0.00    -0.005 A 
ATOM     84  CE2 PHE A  11     -30.262 -22.777   1.801  1.00  0.00    -0.005 A 
ATOM     85  CZ  PHE A  11     -30.273 -24.151   1.593  1.00  0.00    -0.020 A 
ATOM     86  N   PHE A  12     -25.319 -23.328   0.891  1.00  0.00    -0.196 N 
ATOM     87  CA  PHE A  12     -24.699 -24.648   0.952  1.00  0.00    +0.177 C 
ATOM     88  C   PHE A  12     -25.708 -25.696   1.393  1.00  0.00    +0.262 C 
ATOM     89  O   PHE A  12     -25.347 -26.848   1.631  1.00  0.00    -0.271 OA
ATOM     90  CB  PHE A  12     -23.516 -24.647   1.905  1.00  0.00    +0.057 C 
ATOM     91  CG  PHE A  12     -23.285 -23.331   2.586  1.00  0.00    -0.020 A 
ATOM     92  CD1 PHE A  12     -22.805 -22.248   1.860  1.00  0.00    -0.004 A 
ATOM     93  CE1 PHE A  12     -22.590 -21.028   2.492  1.00  0.00    -0.000 A 
ATOM     94  CD2 PHE A  12     -23.550 -23.195   3.944  1.00  0.00    -0.004 A 
ATOM     95  CE2 PHE A  12     -23.336 -21.976   4.576  1.00  0.00    -0.000 A 
ATOM     96  CZ  PHE A  12     -22.855 -20.892   3.849  1.00  0.00    -0.000 A 
ATOM     97  N   ALA A  13     -26.973 -25.298   1.504  1.00  0.00    -0.196 N 
ATOM     98  CA  ALA A  13     -27.895 -25.947   2.430  1.00  0.00    +0.177 C 
ATOM     99  C   ALA A  13     -28.084 -27.413   2.076  1.00  0.00    +0.262 C 
ATOM    100  O   ALA A  13     -28.006 -27.789   0.906  1.00  0.00    -0.271 OA
ATOM    101  CB  ALA A  13     -29.244 -25.247   2.427  1.00  0.00    +0.057 C 
ATOM    102  N   GLY A  14     -28.333 -28.243   3.085  1.00  0.00    -0.194 N 
ATOM    103  CA  GLY A  14     -28.752 -29.621   2.849  1.00  0.00    +0.201 C 
ATOM    104  C   GLY A  14     -30.219 -29.683   2.454  1.00  0.00    +0.264 C 
ATOM    105  O   GLY A  14     -30.884 -28.653   2.357  1.00  0.00    -0.271 OA
ATOM    106  N   SER A  15     -30.725 -30.893   2.226  1.00  0.00    -0.195 N 
ATOM    107  CA  SER A  15     -32.056 -31.064   1.653  1.00  0.00    +0.214 C 
ATOM    108  C   SER A  15     -33.138 -30.850   2.700  1.00  0.00    +0.252 C 
ATOM    109  O   SER A  15     -32.913 -31.089   3.886  1.00  0.00    -0.201 OA
ATOM    110  CB  SER A  15     -32.205 -32.450   1.046  1.00  0.00    +0.334 C 
ATOM    111  OG  SER A  15     -32.220 -33.442   2.059  1.00  0.00    -0.220 OA
ATOM    112  N   SER A  16     -34.309 -30.397   2.263  1.00  0.00    -0.177 NA
ATOM    113  CA  SER A  16     -35.564 -31.028   2.661  1.00  0.00    +0.186 C 
ATOM    114  C   SER A  16     -35.567 -32.510   2.324  1.00  0.00    +0.260 C 
ATOM    115  O   SER A  16     -36.387 -33.267   2.844  1.00  0.00    -0.272 OA
ATOM    116  CB  SER A  16     -36.743 -30.351   1.983  1.00  0.00    +0.209 C 
ATOM    117  OG  SER A  16     -36.492 -30.169   0.600  1.00  0.00    -0.218 OA
ATOM    118  N   ASP A  17     -34.653 -32.927   1.454  1.00  0.00    -0.196 N 
ATOM    119  CA  ASP A  17     -34.616 -34.311   0.992  1.00  0.00    +0.184 C 
ATOM    120  C   ASP A  17     -33.570 -35.112   1.750  1.00  0.00    +0.268 C 
ATOM    121  O   ASP A  17     -33.127 -36.160   1.284  1.00  0.00    -0.271 OA
ATOM    122  CB  ASP A  17     -34.325 -34.379  -0.498  1.00  0.00    +0.141 C 
ATOM    123  CG  ASP A  17     -33.191 -33.460  -0.925  1.00  0.00    +0.321 C 
ATOM    124  OD1 ASP A  17     -32.742 -32.624  -0.110  1.00  0.00    -0.421 OA
ATOM    125  OD2 ASP A  17     -32.742 -33.576  -2.086  1.00  0.00    -0.250 OA
ATOM    126  N   ALA A  18     -33.172 -34.618   2.920  1.00  0.00    -0.161 N 
ATOM    127  CA  ALA A  18     -34.023 -34.688   4.104  1.00  0.00    +0.151 C 
ATOM    128  C   ALA A  18     -34.225 -33.310   4.713  1.00  0.00    +0.247 C 
ATOM    129  O   ALA A  18     -33.477 -32.379   4.414  1.00  0.00    -0.202 OA
ATOM    130  CB  ALA A  18     -33.425 -35.619   5.145  1.00  0.00    +0.028 C 
ATOM    131  N   ILE A  19     -35.234 -33.177   5.568  1.00  0.00    -0.180 NA
ATOM    132  CA  ILE A  19     -35.075 -32.450   6.824  1.00  0.00    +0.153 C 
ATOM    133  C   ILE A  19     -35.154 -33.420   7.991  1.00  0.00    +0.258 C 
ATOM    134  O   ILE A  19     -35.969 -34.341   7.984  1.00  0.00    -0.272 OA
ATOM    135  CB  ILE A  19     -36.128 -31.367   6.991  1.00  0.00    +0.025 C 
ATOM    136  CG1 ILE A  19     -36.263 -30.543   5.712  1.00  0.00    +0.002 C 
ATOM    137  CG2 ILE A  19     -35.762 -30.444   8.153  1.00  0.00    +0.002 C 
ATOM    138  CD1 ILE A  19     -37.252 -29.394   5.821  1.00  0.00    +0.000 C 
ATOM    139  N   ARG A  20     -34.307 -33.214   8.996  1.00  0.00    -0.197 N 
ATOM    140  CA  ARG A  20     -34.524 -33.816  10.309  1.00  0.00    +0.173 C 
ATOM    141  C   ARG A  20     -35.649 -33.114  11.051  1.00  0.00    +0.262 C 
ATOM    142  O   ARG A  20     -35.627 -31.894  11.210  1.00  0.00    -0.271 OA
ATOM    143  CB  ARG A  20     -33.257 -33.766  11.145  1.00  0.00    +0.033 C 
ATOM    144  CG  ARG A  20     -32.933 -32.382  11.686  1.00  0.00    +0.029 C 
ATOM    145  CD  ARG A  20     -32.488 -31.435  10.582  1.00  0.00    +0.129 C 
ATOM    146  NE  ARG A  20     -32.399 -30.058  11.058  1.00  0.00    -0.234 NA
ATOM    147  CZ  ARG A  20     -33.085 -29.036  10.555  1.00  0.00    +0.284 C 
ATOM    148  NH1 ARG A  20     -34.012 -29.236   9.623  1.00  0.00    -0.104 N 
ATOM    149  NH2 ARG A  20     -32.841 -27.803  10.990  1.00  0.00    -0.104 N 
ATOM    150  N   ARG A  21     -36.635 -33.881  11.506  1.00  0.00    -0.194 N 
ATOM    151  CA  ARG A  21     -37.178 -34.975  10.706  1.00  0.00    +0.198 C 
ATOM    152  C   ARG A  21     -38.699 -34.970  10.740  1.00  0.00    +0.384 C 
ATOM    153  O   ARG A  21     -39.341 -35.796  10.093  1.00  0.00    -0.244 OA
ATOM    154  CB  ARG A  21     -36.665 -36.317  11.203  1.00  0.00    +0.035 C 
ATOM    155  CG  ARG A  21     -37.251 -37.509  10.465  1.00  0.00    +0.029 C 
ATOM    156  CD  ARG A  21     -38.053 -37.081   9.246  1.00  0.00    +0.129 C 
ATOM    157  NE  ARG A  21     -38.703 -38.219   8.601  1.00  0.00    -0.234 NA
ATOM    158  CZ  ARG A  21     -38.745 -38.422   7.287  1.00  0.00    +0.284 C 
ATOM    159  NH1 ARG A  21     -38.213 -37.542   6.445  1.00  0.00    -0.104 N 
ATOM    160  NH2 ARG A  21     -39.328 -39.520   6.812  1.00  0.00    -0.104 N 
ATOM    161  OXT ARG A  21     -39.306 -34.139  11.415  1.00  0.00    -0.244 OA
ATOM    162  H   MET A   1     -15.263   2.961   9.796  1.00  0.00    +0.000 HD
ATOM    163  H   MET A   1     -15.148   4.483  10.464  1.00  0.00    +0.000 HD
ATOM    164  H   LYS A   2     -18.917   2.221  11.512  1.00  0.00    +0.000 HD
ATOM    165  H   LYS A   2     -20.871  -2.155  13.224  1.00  0.00    +0.000 HD
ATOM    166  H   GLN A   3     -19.259   0.604   7.342  1.00  0.00    +0.000 HD
ATOM    167  H   GLN A   3     -19.548   3.068   2.800  1.00  0.00    +0.000 HD
ATOM    168  H   GLN A   3     -18.784   2.013   1.700  1.00  0.00    +0.000 HD
ATOM    169  H   ALA A   4     -23.839   0.097   7.106  1.00  0.00    +0.000 HD
ATOM    170  H   VAL A   5     -23.610  -4.528   6.982  1.00  0.00    +0.000 HD
ATOM    171  H   ASN A   6     -25.114  -5.449   3.005  1.00  0.00    +0.000 HD
ATOM    172  H   ASN A   6     -28.352  -4.328   2.007  1.00  0.00    +0.000 HD
ATOM    173  H   ASN A   6     -26.803  -4.768   1.443  1.00  0.00    +0.000 HD
ATOM    174  H   ALA A   7     -26.070  -9.896   3.866  1.00  0.00    +0.000 HD
ATOM    175  H   LEU A   8     -22.354 -10.957   1.435  1.00  0.00    +0.000 HD
ATOM    176  H   LEU A   9     -24.207 -13.930  -1.543  1.00  0.00    +0.000 HD
ATOM    177  H   VAL A  10     -22.530 -17.851   0.121  1.00  0.00    +0.000 HD
ATOM    178  H   PHE A  11     -25.868 -20.215  -1.877  1.00  0.00    +0.000 HD
ATOM    179  H   PHE A  12     -25.540 -22.860   1.728  1.00  0.00    +0.000 HD
ATOM    180  H   ALA A  13     -27.293 -24.550   0.950  1.00  0.00    +0.000 HD
ATOM    181  H   GLY A  14     -28.234 -27.921   4.009  1.00  0.00    +0.000 HD
ATOM    182  H   SER A  15     -30.190 -31.689   2.448  1.00  0.00    +0.000 HD
ATOM    183  H   SER A  16     -34.370 -29.422   2.557  1.00  0.00    +0.000 HD
ATOM    184  H   SER A  16     -36.353 -31.032   0.180  1.00  0.00    +0.000 HD
ATOM    185  H   ASP A  17     -33.985 -32.288   1.115  1.00  0.00    +0.000 HD
ATOM    186  H   ILE A  19     -35.528 -34.122   5.816  1.00  0.00    +0.000 HD
ATOM    187  H   ARG A  20     -33.518 -32.644   8.852  1.00  0.00    +0.000 HD
ATOM    188  H   ARG A  20     -34.515 -28.473   9.257  1.00  0.00    +0.000 HD
ATOM    189  H   ARG A  20     -34.197 -30.147   9.299  1.00  0.00    +0.000 HD
ATOM    190  H   ARG A  20     -33.346 -27.042  10.621  1.00  0.00    +0.000 HD
ATOM    191  H   ARG A  20     -32.155 -27.651  11.679  1.00  0.00    +0.000 HD
ATOM    192  H   ARG A  21     -37.005 -33.708  12.402  1.00  0.00    +0.000 HD
ATOM    193  H   ARG A  21     -38.250 -37.704   5.475  1.00  0.00    +0.000 HD
ATOM    194  H   ARG A  21     -37.782 -36.727   6.792  1.00  0.00    +0.000 HD
ATOM    195  H   ARG A  21     -39.362 -39.677   5.840  1.00  0.00    +0.000 HD
ATOM    196  H   ARG A  21     -39.724 -40.174   7.431  1.00  0.00    +0.000 HD
ATOM    197  H   ARG A  21     -38.831 -33.503  11.913  1.00  0.00    +0.000 HD
ENDROOT
TORSDOF 0
