REMARK  Name = /var/folders/yp/yjbh3p597675h2qddgqr02y00000gn/T/tmptjdtteyu.pdb
REMARK     285 UNITARY VALUES FOR THE UNIT CELL AUTOMATICALLY SET
REMARK     285 BY MDANALYSIS PDBWRITER BECAUSE UNIT CELL INFORMATION
REMARK     285 WAS MISSING.
REMARK     285 PROTEIN DATA BANK CONVENTIONS REQUIRE THAT
REMARK     285 CRYST1 RECORD IS INCLUDED, BUT THE VALUES ON
REMARK     285 THIS RECORD ARE MEANINGLESS.
REMARK     285 UNITARY VALUES FOR THE UNIT CELL AUTOMATICALLY SET
REMARK     285 BY MDANALYSIS PDBWRITER BECAUSE UNIT CELL INFORMATION
REMARK     285 WAS MISSING.
REMARK     285 PROTEIN DATA BANK CONVENTIONS REQUIRE THAT
REMARK     285 CRYST1 RECORD IS INCLUDED, BUT THE VALUES ON
REMARK     285 THIS RECORD ARE MEANINGLESS.
REMARK                            x       y       z     vdW  Elec       q    Type
REMARK                         _______ _______ _______ _____ _____    ______ ____
ROOT
ATOM      1  N   MET A   1      -6.962 -29.649  28.760  1.00  0.00    -0.123 NA
ATOM      2  CA  MET A   1      -6.542 -28.255  28.650  1.00  0.00    +0.170 C 
ATOM      3  C   MET A   1      -5.026 -28.145  28.624  1.00  0.00    +0.259 C 
ATOM      4  O   MET A   1      -4.329 -28.976  29.202  1.00  0.00    -0.272 OA
ATOM      5  CB  MET A   1      -7.089 -27.433  29.807  1.00  0.00    +0.040 C 
ATOM      6  CG  MET A   1      -6.024 -26.984  30.795  1.00  0.00    +0.060 C 
ATOM      7  SD  MET A   1      -5.891 -25.183  30.909  1.00  0.00    -0.139 S 
ATOM      8  CE  MET A   1      -4.122 -24.996  31.099  1.00  0.00    +0.069 C 
ATOM      9  N   LYS A   2      -4.516 -27.117  27.951  1.00  0.00    -0.197 N 
ATOM     10  CA  LYS A   2      -3.928 -27.293  26.626  1.00  0.00    +0.173 C 
ATOM     11  C   LYS A   2      -2.410 -27.351  26.704  1.00  0.00    +0.262 C 
ATOM     12  O   LYS A   2      -1.795 -26.608  27.468  1.00  0.00    -0.271 OA
ATOM     13  CB  LYS A   2      -4.344 -26.166  25.695  1.00  0.00    +0.031 C 
ATOM     14  CG  LYS A   2      -4.180 -26.493  24.222  1.00  0.00    +0.009 C 
ATOM     15  CD  LYS A   2      -5.358 -27.286  23.683  1.00  0.00    +0.049 C 
ATOM     16  CE  LYS A   2      -6.616 -26.564  23.850  1.00  0.00    +0.096 C 
ATOM     17  NZ  LYS A   2      -7.757 -27.111  24.260  1.00  0.00    -0.151 NA
ATOM     18  N   GLN A   3      -1.806 -28.235  25.915  1.00  0.00    -0.196 N 
ATOM     19  CA  GLN A   3      -0.488 -27.969  25.345  1.00  0.00    +0.173 C 
ATOM     20  C   GLN A   3      -0.581 -27.716  23.849  1.00  0.00    +0.262 C 
ATOM     21  O   GLN A   3      -1.341 -28.382  23.149  1.00  0.00    -0.271 OA
ATOM     22  CB  GLN A   3       0.459 -29.129  25.607  1.00  0.00    +0.041 C 
ATOM     23  CG  GLN A   3       0.730 -29.379  27.081  1.00  0.00    +0.091 C 
ATOM     24  CD  GLN A   3       1.566 -30.624  27.323  1.00  0.00    +0.261 C 
ATOM     25  OE1 GLN A   3       2.574 -30.855  26.637  1.00  0.00    -0.272 OA
ATOM     26  NE2 GLN A   3       1.160 -31.433  28.296  1.00  0.00    -0.088 N 
ATOM     27  N   ALA A   4       0.193 -26.752  23.358  1.00  0.00    -0.196 N 
ATOM     28  CA  ALA A   4       1.011 -26.966  22.168  1.00  0.00    +0.173 C 
ATOM     29  C   ALA A   4       2.112 -27.979  22.435  1.00  0.00    +0.262 C 
ATOM     30  O   ALA A   4       2.598 -28.093  23.560  1.00  0.00    -0.271 OA
ATOM     31  CB  ALA A   4       1.627 -25.659  21.695  1.00  0.00    +0.033 C 
ATOM     32  N   VAL A   5       2.506 -28.718  21.402  1.00  0.00    -0.196 N 
ATOM     33  CA  VAL A   5       3.539 -29.739  21.548  1.00  0.00    +0.173 C 
ATOM     34  C   VAL A   5       4.787 -29.124  22.161  1.00  0.00    +0.262 C 
ATOM     35  O   VAL A   5       5.062 -27.942  21.962  1.00  0.00    -0.271 OA
ATOM     36  CB  VAL A   5       3.892 -30.383  20.218  1.00  0.00    +0.029 C 
ATOM     37  CG1 VAL A   5       5.347 -30.846  20.210  1.00  0.00    +0.002 C 
ATOM     38  CG2 VAL A   5       3.009 -31.605  19.966  1.00  0.00    +0.002 C 
ATOM     39  N   ASN A   6       5.541 -29.926  22.907  1.00  0.00    -0.196 N 
ATOM     40  CA  ASN A   6       5.200 -30.215  24.298  1.00  0.00    +0.182 C 
ATOM     41  C   ASN A   6       5.182 -28.950  25.141  1.00  0.00    +0.262 C 
ATOM     42  O   ASN A   6       6.145 -28.185  25.139  1.00  0.00    -0.271 OA
ATOM     43  CB  ASN A   6       6.173 -31.214  24.900  1.00  0.00    +0.120 C 
ATOM     44  CG  ASN A   6       5.511 -32.144  25.902  1.00  0.00    +0.263 C 
ATOM     45  OD1 ASN A   6       4.294 -32.111  26.087  1.00  0.00    -0.272 OA
ATOM     46  ND2 ASN A   6       6.312 -32.982  26.554  1.00  0.00    -0.088 N 
ATOM     47  N   ALA A   7       4.088 -28.730  25.863  1.00  0.00    -0.196 N 
ATOM     48  CA  ALA A   7       3.419 -27.433  25.854  1.00  0.00    +0.173 C 
ATOM     49  C   ALA A   7       4.305 -26.356  26.458  1.00  0.00    +0.262 C 
ATOM     50  O   ALA A   7       4.094 -25.168  26.219  1.00  0.00    -0.271 OA
ATOM     51  CB  ALA A   7       2.106 -27.497  26.619  1.00  0.00    +0.033 C 
ATOM     52  N   LEU A   8       5.296 -26.771  27.242  1.00  0.00    -0.196 N 
ATOM     53  CA  LEU A   8       6.419 -25.898  27.574  1.00  0.00    +0.173 C 
ATOM     54  C   LEU A   8       7.499 -25.977  26.507  1.00  0.00    +0.262 C 
ATOM     55  O   LEU A   8       8.294 -25.050  26.353  1.00  0.00    -0.271 OA
ATOM     56  CB  LEU A   8       7.011 -26.272  28.923  1.00  0.00    +0.031 C 
ATOM     57  CG  LEU A   8       6.582 -25.405  30.109  1.00  0.00    +0.002 C 
ATOM     58  CD1 LEU A   8       6.762 -23.929  29.776  1.00  0.00    +0.000 C 
ATOM     59  CD2 LEU A   8       7.592 -25.512  31.245  1.00  0.00    +0.000 C 
ATOM     60  N   LEU A   9       7.527 -27.082  25.768  1.00  0.00    -0.196 N 
ATOM     61  CA  LEU A   9       8.773 -27.575  25.185  1.00  0.00    +0.173 C 
ATOM     62  C   LEU A   9       8.967 -27.027  23.780  1.00  0.00    +0.262 C 
ATOM     63  O   LEU A   9       9.863 -27.464  23.058  1.00  0.00    -0.271 OA
ATOM     64  CB  LEU A   9       8.784 -29.094  25.144  1.00  0.00    +0.031 C 
ATOM     65  CG  LEU A   9       9.350 -29.796  26.379  1.00  0.00    +0.002 C 
ATOM     66  CD1 LEU A   9       9.130 -31.302  26.277  1.00  0.00    +0.000 C 
ATOM     67  CD2 LEU A   9       8.479 -29.517  27.601  1.00  0.00    +0.000 C 
ATOM     68  N   VAL A  10       8.130 -26.071  23.391  1.00  0.00    -0.196 N 
ATOM     69  CA  VAL A  10       8.458 -25.177  22.284  1.00  0.00    +0.173 C 
ATOM     70  C   VAL A  10       8.596 -23.753  22.796  1.00  0.00    +0.262 C 
ATOM     71  O   VAL A  10       7.789 -23.299  23.606  1.00  0.00    -0.271 OA
ATOM     72  CB  VAL A  10       7.407 -25.223  21.188  1.00  0.00    +0.029 C 
ATOM     73  CG1 VAL A  10       8.065 -25.235  19.809  1.00  0.00    +0.002 C 
ATOM     74  CG2 VAL A  10       6.559 -26.485  21.316  1.00  0.00    +0.002 C 
ATOM     75  N   PHE A  11       9.620 -23.046  22.326  1.00  0.00    -0.196 N 
ATOM     76  CA  PHE A  11       9.974 -21.749  22.895  1.00  0.00    +0.177 C 
ATOM     77  C   PHE A  11       9.059 -20.658  22.359  1.00  0.00    +0.262 C 
ATOM     78  O   PHE A  11       8.588 -19.811  23.115  1.00  0.00    -0.271 OA
ATOM     79  CB  PHE A  11      11.420 -21.396  22.583  1.00  0.00    +0.057 C 
ATOM     80  CG  PHE A  11      11.926 -20.201  23.334  1.00  0.00    -0.020 A 
ATOM     81  CD1 PHE A  11      12.040 -20.244  24.719  1.00  0.00    -0.004 A 
ATOM     82  CE1 PHE A  11      12.509 -19.135  25.413  1.00  0.00    -0.000 A 
ATOM     83  CD2 PHE A  11      12.286 -19.048  22.644  1.00  0.00    -0.004 A 
ATOM     84  CE2 PHE A  11      12.756 -17.940  23.339  1.00  0.00    -0.000 A 
ATOM     85  CZ  PHE A  11      12.868 -17.984  24.723  1.00  0.00    -0.000 A 
ATOM     86  N   PHE A  12       8.809 -20.680  21.054  1.00  0.00    -0.196 N 
ATOM     87  CA  PHE A  12       9.098 -19.527  20.205  1.00  0.00    +0.177 C 
ATOM     88  C   PHE A  12       7.925 -18.562  20.189  1.00  0.00    +0.262 C 
ATOM     89  O   PHE A  12       8.107 -17.360  20.010  1.00  0.00    -0.271 OA
ATOM     90  CB  PHE A  12       9.413 -19.966  18.784  1.00  0.00    +0.057 C 
ATOM     91  CG  PHE A  12      10.631 -20.833  18.672  1.00  0.00    -0.020 A 
ATOM     92  CD1 PHE A  12      11.899 -20.265  18.734  1.00  0.00    -0.004 A 
ATOM     93  CE1 PHE A  12      13.027 -21.069  18.631  1.00  0.00    -0.000 A 
ATOM     94  CD2 PHE A  12      10.493 -22.207  18.508  1.00  0.00    -0.004 A 
ATOM     95  CE2 PHE A  12      11.622 -23.011  18.406  1.00  0.00    -0.000 A 
ATOM     96  CZ  PHE A  12      12.889 -22.443  18.466  1.00  0.00    -0.000 A 
ATOM     97  N   ALA A  13       6.717 -19.090  20.378  1.00  0.00    -0.196 N 
ATOM     98  CA  ALA A  13       5.590 -18.738  19.518  1.00  0.00    +0.173 C 
ATOM     99  C   ALA A  13       5.160 -17.297  19.741  1.00  0.00    +0.262 C 
ATOM    100  O   ALA A  13       4.624 -16.658  18.837  1.00  0.00    -0.271 OA
ATOM    101  CB  ALA A  13       4.412 -19.664  19.768  1.00  0.00    +0.033 C 
ATOM    102  N   GLY A  14       5.395 -16.785  20.947  1.00  0.00    -0.194 N 
ATOM    103  CA  GLY A  14       5.441 -15.343  21.165  1.00  0.00    +0.201 C 
ATOM    104  C   GLY A  14       6.782 -14.773  20.735  1.00  0.00    +0.264 C 
ATOM    105  O   GLY A  14       6.836 -13.800  19.984  1.00  0.00    -0.271 OA
ATOM    106  N   SER A  15       7.868 -15.377  21.212  1.00  0.00    -0.194 N 
ATOM    107  CA  SER A  15       8.146 -15.417  22.645  1.00  0.00    +0.205 C 
ATOM    108  C   SER A  15       8.556 -14.051  23.167  1.00  0.00    +0.264 C 
ATOM    109  O   SER A  15       9.004 -13.197  22.401  1.00  0.00    -0.271 OA
ATOM    110  CB  SER A  15       9.244 -16.425  22.949  1.00  0.00    +0.213 C 
ATOM    111  OG  SER A  15      10.517 -15.897  22.618  1.00  0.00    -0.218 OA
ATOM    112  N   SER A  16       8.402 -13.840  24.471  1.00  0.00    -0.194 N 
ATOM    113  CA  SER A  16       9.056 -12.719  25.142  1.00  0.00    +0.205 C 
ATOM    114  C   SER A  16      10.565 -12.780  24.973  1.00  0.00    +0.264 C 
ATOM    115  O   SER A  16      11.125 -13.848  24.731  1.00  0.00    -0.271 OA
ATOM    116  CB  SER A  16       8.713 -12.708  26.623  1.00  0.00    +0.213 C 
ATOM    117  OG  SER A  16       7.309 -12.674  26.813  1.00  0.00    -0.218 OA
ATOM    118  N   ASP A  17      11.225 -11.631  25.098  1.00  0.00    -0.196 N 
ATOM    119  CA  ASP A  17      10.711 -10.394  24.515  1.00  0.00    +0.184 C 
ATOM    120  C   ASP A  17      11.668  -9.848  23.466  1.00  0.00    +0.262 C 
ATOM    121  O   ASP A  17      12.871 -10.092  23.530  1.00  0.00    -0.271 OA
ATOM    122  CB  ASP A  17      10.483  -9.343  25.589  1.00  0.00    +0.145 C 
ATOM    123  CG  ASP A  17       9.020  -9.194  25.975  1.00  0.00    +0.367 C 
ATOM    124  OD1 ASP A  17       8.136  -9.518  25.150  1.00  0.00    -0.246 OA
ATOM    125  OD2 ASP A  17       8.750  -8.749  27.110  1.00  0.00    -0.246 OA
ATOM    126  N   ALA A  18      11.132  -9.108  22.500  1.00  0.00    -0.196 N 
ATOM    127  CA  ALA A  18      11.759  -7.867  22.054  1.00  0.00    +0.173 C 
ATOM    128  C   ALA A  18      10.789  -6.701  22.143  1.00  0.00    +0.262 C 
ATOM    129  O   ALA A  18       9.600  -6.855  21.864  1.00  0.00    -0.271 OA
ATOM    130  CB  ALA A  18      12.266  -7.999  20.627  1.00  0.00    +0.033 C 
ATOM    131  N   ILE A  19      11.292  -5.533  22.531  1.00  0.00    -0.196 N 
ATOM    132  CA  ILE A  19      10.979  -4.296  21.820  1.00  0.00    +0.173 C 
ATOM    133  C   ILE A  19      12.203  -3.823  21.052  1.00  0.00    +0.262 C 
ATOM    134  O   ILE A  19      13.322  -3.884  21.559  1.00  0.00    -0.271 OA
ATOM    135  CB  ILE A  19      10.517  -3.199  22.766  1.00  0.00    +0.029 C 
ATOM    136  CG1 ILE A  19       9.392  -3.704  23.667  1.00  0.00    +0.002 C 
ATOM    137  CG2 ILE A  19      10.028  -1.987  21.976  1.00  0.00    +0.002 C 
ATOM    138  CD1 ILE A  19       8.894  -2.673  24.667  1.00  0.00    +0.000 C 
ATOM    139  N   ARG A  20      11.991  -3.350  19.827  1.00  0.00    -0.196 N 
ATOM    140  CA  ARG A  20      12.865  -2.337  19.242  1.00  0.00    +0.173 C 
ATOM    141  C   ARG A  20      12.781  -1.032  20.017  1.00  0.00    +0.262 C 
ATOM    142  O   ARG A  20      12.760  -1.036  21.246  1.00  0.00    -0.271 OA
ATOM    143  CB  ARG A  20      12.506  -2.087  17.786  1.00  0.00    +0.033 C 
ATOM    144  CG  ARG A  20      13.549  -1.286  17.026  1.00  0.00    +0.021 C 
ATOM    145  CD  ARG A  20      13.229  -1.207  15.542  1.00  0.00    +0.085 C 
ATOM    146  NE  ARG A  20      14.298  -0.551  14.794  1.00  0.00    -0.247 NA
ATOM    147  CZ  ARG A  20      14.533   0.758  14.798  1.00  0.00    +0.038 C 
ATOM    148  NH1 ARG A  20      13.780   1.581  15.524  1.00  0.00    -0.165 NA
ATOM    149  NH2 ARG A  20      15.532   1.249  14.070  1.00  0.00    +0.446 N 
ATOM    150  N   ARG A  21      12.733   0.086  19.298  1.00  0.00    -0.194 N 
ATOM    151  CA  ARG A  21      13.569   1.238  19.625  1.00  0.00    +0.198 C 
ATOM    152  C   ARG A  21      12.724   2.405  20.107  1.00  0.00    +0.384 C 
ATOM    153  O   ARG A  21      12.577   2.617  21.309  1.00  0.00    -0.244 OA
ATOM    154  CB  ARG A  21      14.395   1.668  18.425  1.00  0.00    +0.031 C 
ATOM    155  CG  ARG A  21      15.605   0.786  18.163  1.00  0.00    -0.025 C 
ATOM    156  CD  ARG A  21      16.436   1.300  16.997  1.00  0.00    -0.101 C 
ATOM    157  NE  ARG A  21      15.851   0.927  15.713  1.00  0.00    +0.440 N 
ATOM    158  CZ  ARG A  21      16.452   0.173  14.797  1.00  0.00    +0.015 C 
ATOM    159  NH1 ARG A  21      17.436  -0.654  15.138  1.00  0.00    -0.168 NA
ATOM    160  NH2 ARG A  21      16.064   0.248  13.527  1.00  0.00    -0.335 NA
ATOM    161  OXT ARG A  21      12.177   3.155  19.299  1.00  0.00    -0.244 OA
ATOM    162  H   MET A   1      -6.584 -30.180  27.975  1.00  0.00    +0.000 HD
ATOM    163  H   MET A   1      -7.981 -29.699  28.746  1.00  0.00    +0.000 HD
ATOM    164  H   LYS A   2      -4.535 -26.220  28.355  1.00  0.00    +0.000 HD
ATOM    165  H   LYS A   2      -7.794 -28.071  24.476  1.00  0.00    +0.000 HD
ATOM    166  H   GLN A   3      -2.256 -29.087  25.712  1.00  0.00    +0.000 HD
ATOM    167  H   GLN A   3       1.665 -32.254  28.496  1.00  0.00    +0.000 HD
ATOM    168  H   GLN A   3       0.355 -31.212  28.817  1.00  0.00    +0.000 HD
ATOM    169  H   ALA A   4       0.214 -25.876  23.807  1.00  0.00    +0.000 HD
ATOM    170  H   VAL A   5       2.092 -28.575  20.521  1.00  0.00    +0.000 HD
ATOM    171  H   ASN A   6       6.346 -30.334  22.513  1.00  0.00    +0.000 HD
ATOM    172  H   ASN A   6       7.280 -32.976  26.376  1.00  0.00    +0.000 HD
ATOM    173  H   ASN A   6       5.937 -33.608  27.214  1.00  0.00    +0.000 HD
ATOM    174  H   ALA A   7       3.721 -29.458  26.417  1.00  0.00    +0.000 HD
ATOM    175  H   LEU A   8       5.272 -27.685  27.606  1.00  0.00    +0.000 HD
ATOM    176  H   LEU A   9       6.691 -27.578  25.611  1.00  0.00    +0.000 HD
ATOM    177  H   VAL A  10       7.270 -25.963  23.859  1.00  0.00    +0.000 HD
ATOM    178  H   PHE A  11      10.151 -23.405  21.578  1.00  0.00    +0.000 HD
ATOM    179  H   PHE A  12       8.421 -21.490  20.651  1.00  0.00    +0.000 HD
ATOM    180  H   ALA A  13       6.580 -19.732  21.113  1.00  0.00    +0.000 HD
ATOM    181  H   GLY A  14       5.540 -17.393  21.708  1.00  0.00    +0.000 HD
ATOM    182  H   SER A  15       8.496 -15.805  20.587  1.00  0.00    +0.000 HD
ATOM    183  H   SER A  15      10.682 -15.098  23.145  1.00  0.00    +0.000 HD
ATOM    184  H   SER A  16       7.836 -14.452  24.994  1.00  0.00    +0.000 HD
ATOM    185  H   SER A  16       6.947 -11.869  26.410  1.00  0.00    +0.000 HD
ATOM    186  H   ASP A  17      12.076 -11.614  25.593  1.00  0.00    +0.000 HD
ATOM    187  H   ASP A  17       8.380  -9.848  24.307  1.00  0.00    +0.000 HD
ATOM    188  H   ALA A  18      10.294  -9.403  22.076  1.00  0.00    +0.000 HD
ATOM    189  H   ILE A  19      11.888  -5.501  23.313  1.00  0.00    +0.000 HD
ATOM    190  H   ARG A  20      11.230  -3.690  19.304  1.00  0.00    +0.000 HD
ATOM    191  H   ARG A  20      15.163  -0.985  15.116  1.00  0.00    +0.000 HD
ATOM    192  H   ARG A  20      14.109   2.539  15.403  1.00  0.00    +0.000 HD
ATOM    193  H   ARG A  20      13.845   1.321  16.508  1.00  0.00    +0.000 HD
ATOM    194  H   ARG A  21      12.121   0.139  18.528  1.00  0.00    +0.000 HD
ATOM    195  H   ARG A  21      17.604  -0.586  16.142  1.00  0.00    +0.000 HD
ATOM    196  H   ARG A  21      18.285  -0.399  14.634  1.00  0.00    +0.000 HD
ATOM    197  H   ARG A  21      15.439  -0.484  13.189  1.00  0.00    +0.000 HD
ATOM    198  H   ARG A  21      12.279   3.008  18.379  1.00  0.00    +0.000 HD
ENDROOT
TORSDOF 0
