REMARK  Name = /var/folders/yp/yjbh3p597675h2qddgqr02y00000gn/T/tmprd60el0q.pdb
REMARK     285 UNITARY VALUES FOR THE UNIT CELL AUTOMATICALLY SET
REMARK     285 BY MDANALYSIS PDBWRITER BECAUSE UNIT CELL INFORMATION
REMARK     285 WAS MISSING.
REMARK     285 PROTEIN DATA BANK CONVENTIONS REQUIRE THAT
REMARK     285 CRYST1 RECORD IS INCLUDED, BUT THE VALUES ON
REMARK     285 THIS RECORD ARE MEANINGLESS.
REMARK     285 UNITARY VALUES FOR THE UNIT CELL AUTOMATICALLY SET
REMARK     285 BY MDANALYSIS PDBWRITER BECAUSE UNIT CELL INFORMATION
REMARK     285 WAS MISSING.
REMARK     285 PROTEIN DATA BANK CONVENTIONS REQUIRE THAT
REMARK     285 CRYST1 RECORD IS INCLUDED, BUT THE VALUES ON
REMARK     285 THIS RECORD ARE MEANINGLESS.
REMARK                            x       y       z     vdW  Elec       q    Type
REMARK                         _______ _______ _______ _____ _____    ______ ____
ROOT
ATOM      1  N   MET A   1       2.299   9.512  -5.710  1.00  0.00    -0.123 NA
ATOM      2  CA  MET A   1       2.048   9.642  -7.143  1.00  0.00    +0.170 C 
ATOM      3  C   MET A   1       0.609  10.056  -7.406  1.00  0.00    +0.259 C 
ATOM      4  O   MET A   1       0.356  11.144  -7.919  1.00  0.00    -0.272 OA
ATOM      5  CB  MET A   1       2.340   8.336  -7.863  1.00  0.00    +0.040 C 
ATOM      6  CG  MET A   1       3.775   8.215  -8.350  1.00  0.00    +0.060 C 
ATOM      7  SD  MET A   1       4.907   9.317  -7.466  1.00  0.00    -0.139 S 
ATOM      8  CE  MET A   1       4.265  10.912  -7.957  1.00  0.00    +0.069 C 
ATOM      9  N   LYS A   2      -0.335   9.187  -7.056  1.00  0.00    -0.197 N 
ATOM     10  CA  LYS A   2      -1.016   8.362  -8.049  1.00  0.00    +0.173 C 
ATOM     11  C   LYS A   2      -1.963   9.197  -8.896  1.00  0.00    +0.262 C 
ATOM     12  O   LYS A   2      -2.625   8.675  -9.793  1.00  0.00    -0.271 OA
ATOM     13  CB  LYS A   2      -1.791   7.239  -7.380  1.00  0.00    +0.031 C 
ATOM     14  CG  LYS A   2      -2.302   6.184  -8.348  1.00  0.00    +0.009 C 
ATOM     15  CD  LYS A   2      -1.511   6.176  -9.646  1.00  0.00    +0.049 C 
ATOM     16  CE  LYS A   2      -0.394   5.238  -9.589  1.00  0.00    +0.096 C 
ATOM     17  NZ  LYS A   2      -0.427   3.991 -10.051  1.00  0.00    -0.151 NA
ATOM     18  N   GLN A   3      -2.029  10.494  -8.614  1.00  0.00    -0.196 N 
ATOM     19  CA  GLN A   3      -3.175  11.304  -9.018  1.00  0.00    +0.173 C 
ATOM     20  C   GLN A   3      -3.091  11.675 -10.489  1.00  0.00    +0.262 C 
ATOM     21  O   GLN A   3      -3.962  12.371 -11.008  1.00  0.00    -0.271 OA
ATOM     22  CB  GLN A   3      -3.269  12.567  -8.179  1.00  0.00    +0.041 C 
ATOM     23  CG  GLN A   3      -3.837  12.339  -6.788  1.00  0.00    +0.091 C 
ATOM     24  CD  GLN A   3      -2.808  11.783  -5.816  1.00  0.00    +0.261 C 
ATOM     25  OE1 GLN A   3      -1.724  11.339  -6.223  1.00  0.00    -0.272 OA
ATOM     26  NE2 GLN A   3      -3.137  11.801  -4.528  1.00  0.00    -0.088 N 
ATOM     27  N   ALA A   4      -2.041  11.212 -11.162  1.00  0.00    -0.196 N 
ATOM     28  CA  ALA A   4      -2.062  11.097 -12.617  1.00  0.00    +0.173 C 
ATOM     29  C   ALA A   4      -1.755   9.675 -13.058  1.00  0.00    +0.262 C 
ATOM     30  O   ALA A   4      -0.991   8.968 -12.404  1.00  0.00    -0.271 OA
ATOM     31  CB  ALA A   4      -1.059  12.051 -13.247  1.00  0.00    +0.033 C 
ATOM     32  N   VAL A   5      -2.352   9.255 -14.170  1.00  0.00    -0.196 N 
ATOM     33  CA  VAL A   5      -1.579   8.855 -15.343  1.00  0.00    +0.173 C 
ATOM     34  C   VAL A   5      -1.500  10.012 -16.325  1.00  0.00    +0.262 C 
ATOM     35  O   VAL A   5      -0.945   9.869 -17.413  1.00  0.00    -0.271 OA
ATOM     36  CB  VAL A   5      -2.183   7.644 -16.033  1.00  0.00    +0.029 C 
ATOM     37  CG1 VAL A   5      -2.514   6.551 -15.019  1.00  0.00    +0.002 C 
ATOM     38  CG2 VAL A   5      -3.475   8.028 -16.750  1.00  0.00    +0.002 C 
ATOM     39  N   ASN A   6      -2.055  11.158 -15.942  1.00  0.00    -0.196 N 
ATOM     40  CA  ASN A   6      -2.614  12.095 -16.913  1.00  0.00    +0.182 C 
ATOM     41  C   ASN A   6      -1.520  12.806 -17.695  1.00  0.00    +0.262 C 
ATOM     42  O   ASN A   6      -1.757  13.290 -18.800  1.00  0.00    -0.271 OA
ATOM     43  CB  ASN A   6      -3.500  13.122 -16.231  1.00  0.00    +0.120 C 
ATOM     44  CG  ASN A   6      -3.476  14.471 -16.932  1.00  0.00    +0.263 C 
ATOM     45  OD1 ASN A   6      -2.432  14.919 -17.404  1.00  0.00    -0.272 OA
ATOM     46  ND2 ASN A   6      -4.634  15.125 -16.999  1.00  0.00    -0.088 N 
ATOM     47  N   ALA A   7      -0.323  12.869 -17.120  1.00  0.00    -0.196 N 
ATOM     48  CA  ALA A   7       0.406  14.130 -17.018  1.00  0.00    +0.173 C 
ATOM     49  C   ALA A   7       0.841  14.622 -18.390  1.00  0.00    +0.262 C 
ATOM     50  O   ALA A   7       1.355  15.731 -18.520  1.00  0.00    -0.271 OA
ATOM     51  CB  ALA A   7       1.626  13.979 -16.123  1.00  0.00    +0.033 C 
ATOM     52  N   LEU A   8       0.634  13.797 -19.412  1.00  0.00    -0.196 N 
ATOM     53  CA  LEU A   8       1.648  13.597 -20.443  1.00  0.00    +0.173 C 
ATOM     54  C   LEU A   8       2.008  14.913 -21.113  1.00  0.00    +0.262 C 
ATOM     55  O   LEU A   8       1.138  15.603 -21.642  1.00  0.00    -0.271 OA
ATOM     56  CB  LEU A   8       1.161  12.611 -21.493  1.00  0.00    +0.031 C 
ATOM     57  CG  LEU A   8       1.322  11.128 -21.150  1.00  0.00    +0.002 C 
ATOM     58  CD1 LEU A   8       0.973  10.266 -22.358  1.00  0.00    +0.000 C 
ATOM     59  CD2 LEU A   8       0.212  10.672 -20.210  1.00  0.00    +0.000 C 
ATOM     60  N   LEU A   9       3.291  15.262 -21.090  1.00  0.00    -0.196 N 
ATOM     61  CA  LEU A   9       3.697  16.664 -21.066  1.00  0.00    +0.173 C 
ATOM     62  C   LEU A   9       3.412  17.333 -22.401  1.00  0.00    +0.262 C 
ATOM     63  O   LEU A   9       3.581  16.725 -23.455  1.00  0.00    -0.271 OA
ATOM     64  CB  LEU A   9       5.176  16.791 -20.741  1.00  0.00    +0.031 C 
ATOM     65  CG  LEU A   9       5.582  16.446 -19.306  1.00  0.00    +0.002 C 
ATOM     66  CD1 LEU A   9       6.972  15.821 -19.287  1.00  0.00    +0.000 C 
ATOM     67  CD2 LEU A   9       4.783  15.253 -18.796  1.00  0.00    +0.000 C 
ATOM     68  N   VAL A  10       2.977  18.589 -22.356  1.00  0.00    -0.196 N 
ATOM     69  CA  VAL A  10       3.648  19.654 -23.099  1.00  0.00    +0.173 C 
ATOM     70  C   VAL A  10       4.836  20.166 -22.302  1.00  0.00    +0.262 C 
ATOM     71  O   VAL A  10       5.769  20.734 -22.868  1.00  0.00    -0.271 OA
ATOM     72  CB  VAL A  10       2.708  20.807 -23.411  1.00  0.00    +0.029 C 
ATOM     73  CG1 VAL A  10       1.752  20.434 -24.541  1.00  0.00    +0.002 C 
ATOM     74  CG2 VAL A  10       1.873  21.160 -22.182  1.00  0.00    +0.002 C 
ATOM     75  N   PHE A  11       4.802  19.969 -20.987  1.00  0.00    -0.196 N 
ATOM     76  CA  PHE A  11       5.052  21.059 -20.048  1.00  0.00    +0.177 C 
ATOM     77  C   PHE A  11       6.531  21.151 -19.712  1.00  0.00    +0.262 C 
ATOM     78  O   PHE A  11       7.235  22.024 -20.220  1.00  0.00    -0.271 OA
ATOM     79  CB  PHE A  11       4.250  20.869 -18.772  1.00  0.00    +0.057 C 
ATOM     80  CG  PHE A  11       3.900  19.440 -18.481  1.00  0.00    -0.020 A 
ATOM     81  CD1 PHE A  11       4.847  18.591 -17.922  1.00  0.00    -0.004 A 
ATOM     82  CE1 PHE A  11       4.522  17.267 -17.655  1.00  0.00    -0.000 A 
ATOM     83  CD2 PHE A  11       2.626  18.965 -18.771  1.00  0.00    -0.004 A 
ATOM     84  CE2 PHE A  11       2.300  17.641 -18.503  1.00  0.00    -0.000 A 
ATOM     85  CZ  PHE A  11       3.248  16.792 -17.943  1.00  0.00    -0.000 A 
ATOM     86  N   PHE A  12       7.005  20.253 -18.853  1.00  0.00    -0.196 N 
ATOM     87  CA  PHE A  12       8.132  20.558 -17.978  1.00  0.00    +0.177 C 
ATOM     88  C   PHE A  12       9.419  19.966 -18.530  1.00  0.00    +0.262 C 
ATOM     89  O   PHE A  12      10.354  20.698 -18.853  1.00  0.00    -0.271 OA
ATOM     90  CB  PHE A  12       7.889  20.026 -16.575  1.00  0.00    +0.057 C 
ATOM     91  CG  PHE A  12       7.121  18.739 -16.537  1.00  0.00    -0.020 A 
ATOM     92  CD1 PHE A  12       5.833  18.683 -17.055  1.00  0.00    -0.004 A 
ATOM     93  CE1 PHE A  12       5.119  17.490 -17.019  1.00  0.00    -0.000 A 
ATOM     94  CD2 PHE A  12       7.698  17.601 -15.986  1.00  0.00    -0.004 A 
ATOM     95  CE2 PHE A  12       6.986  16.408 -15.950  1.00  0.00    -0.000 A 
ATOM     96  CZ  PHE A  12       5.696  16.353 -16.467  1.00  0.00    -0.000 A 
ATOM     97  N   ALA A  13       9.467  18.641 -18.638  1.00  0.00    -0.196 N 
ATOM     98  CA  ALA A  13       9.796  17.798 -17.493  1.00  0.00    +0.173 C 
ATOM     99  C   ALA A  13      11.280  17.476 -17.459  1.00  0.00    +0.262 C 
ATOM    100  O   ALA A  13      11.782  16.748 -18.317  1.00  0.00    -0.271 OA
ATOM    101  CB  ALA A  13       8.997  16.505 -17.528  1.00  0.00    +0.033 C 
ATOM    102  N   GLY A  14      11.986  18.015 -16.470  1.00  0.00    -0.194 N 
ATOM    103  CA  GLY A  14      13.222  17.400 -15.993  1.00  0.00    +0.201 C 
ATOM    104  C   GLY A  14      14.402  17.817 -16.854  1.00  0.00    +0.264 C 
ATOM    105  O   GLY A  14      14.380  18.880 -17.473  1.00  0.00    -0.271 OA
ATOM    106  N   SER A  15      15.436  16.981 -16.896  1.00  0.00    -0.194 N 
ATOM    107  CA  SER A  15      16.766  17.434 -17.288  1.00  0.00    +0.205 C 
ATOM    108  C   SER A  15      16.907  17.485 -18.801  1.00  0.00    +0.264 C 
ATOM    109  O   SER A  15      17.096  16.453 -19.445  1.00  0.00    -0.271 OA
ATOM    110  CB  SER A  15      17.836  16.524 -16.709  1.00  0.00    +0.213 C 
ATOM    111  OG  SER A  15      17.749  15.225 -17.272  1.00  0.00    -0.218 OA
ATOM    112  N   SER A  16      16.812  18.683 -19.370  1.00  0.00    -0.194 N 
ATOM    113  CA  SER A  16      17.547  19.005 -20.590  1.00  0.00    +0.205 C 
ATOM    114  C   SER A  16      18.971  19.437 -20.278  1.00  0.00    +0.264 C 
ATOM    115  O   SER A  16      19.303  19.703 -19.124  1.00  0.00    -0.271 OA
ATOM    116  CB  SER A  16      16.841  20.106 -21.364  1.00  0.00    +0.213 C 
ATOM    117  OG  SER A  16      16.899  21.334 -20.660  1.00  0.00    -0.218 OA
ATOM    118  N   ASP A  17      19.812  19.504 -21.305  1.00  0.00    -0.196 N 
ATOM    119  CA  ASP A  17      21.257  19.558 -21.104  1.00  0.00    +0.184 C 
ATOM    120  C   ASP A  17      21.776  20.979 -21.253  1.00  0.00    +0.262 C 
ATOM    121  O   ASP A  17      21.184  21.789 -21.964  1.00  0.00    -0.271 OA
ATOM    122  CB  ASP A  17      21.977  18.649 -22.085  1.00  0.00    +0.145 C 
ATOM    123  CG  ASP A  17      22.326  19.343 -23.392  1.00  0.00    +0.367 C 
ATOM    124  OD1 ASP A  17      21.546  19.244 -24.364  1.00  0.00    -0.246 OA
ATOM    125  OD2 ASP A  17      23.391  19.995 -23.449  1.00  0.00    -0.246 OA
ATOM    126  N   ALA A  18      22.883  21.284 -20.580  1.00  0.00    -0.196 N 
ATOM    127  CA  ALA A  18      23.436  22.634 -20.601  1.00  0.00    +0.173 C 
ATOM    128  C   ALA A  18      24.893  22.619 -21.033  1.00  0.00    +0.262 C 
ATOM    129  O   ALA A  18      25.774  22.270 -20.248  1.00  0.00    -0.271 OA
ATOM    130  CB  ALA A  18      23.321  23.285 -19.233  1.00  0.00    +0.033 C 
ATOM    131  N   ILE A  19      25.150  22.998 -22.281  1.00  0.00    -0.196 N 
ATOM    132  CA  ILE A  19      25.248  24.410 -22.642  1.00  0.00    +0.173 C 
ATOM    133  C   ILE A  19      24.154  24.762 -23.637  1.00  0.00    +0.262 C 
ATOM    134  O   ILE A  19      24.249  24.425 -24.816  1.00  0.00    -0.271 OA
ATOM    135  CB  ILE A  19      26.605  24.752 -23.236  1.00  0.00    +0.029 C 
ATOM    136  CG1 ILE A  19      27.691  24.699 -22.165  1.00  0.00    +0.002 C 
ATOM    137  CG2 ILE A  19      26.576  26.146 -23.860  1.00  0.00    +0.002 C 
ATOM    138  CD1 ILE A  19      28.444  23.378 -22.114  1.00  0.00    +0.000 C 
ATOM    139  N   ARG A  20      23.115  25.443 -23.164  1.00  0.00    -0.196 N 
ATOM    140  CA  ARG A  20      22.461  26.480 -23.955  1.00  0.00    +0.173 C 
ATOM    141  C   ARG A  20      23.178  27.812 -23.805  1.00  0.00    +0.262 C 
ATOM    142  O   ARG A  20      23.335  28.551 -24.777  1.00  0.00    -0.271 OA
ATOM    143  CB  ARG A  20      21.006  26.640 -23.548  1.00  0.00    +0.033 C 
ATOM    144  CG  ARG A  20      20.818  27.209 -22.151  1.00  0.00    +0.029 C 
ATOM    145  CD  ARG A  20      19.418  27.771 -21.953  1.00  0.00    +0.129 C 
ATOM    146  NE  ARG A  20      19.413  29.230 -21.986  1.00  0.00    -0.234 NA
ATOM    147  CZ  ARG A  20      18.463  29.998 -21.462  1.00  0.00    +0.284 C 
ATOM    148  NH1 ARG A  20      17.411  29.455 -20.855  1.00  0.00    -0.104 N 
ATOM    149  NH2 ARG A  20      18.566  31.321 -21.543  1.00  0.00    -0.104 N 
ATOM    150  N   ARG A  21      23.613  28.121 -22.587  1.00  0.00    -0.194 N 
ATOM    151  CA  ARG A  21      23.067  29.257 -21.849  1.00  0.00    +0.198 C 
ATOM    152  C   ARG A  21      24.134  30.313 -21.608  1.00  0.00    +0.384 C 
ATOM    153  O   ARG A  21      23.869  31.507 -21.730  1.00  0.00    -0.244 OA
ATOM    154  CB  ARG A  21      22.486  28.809 -20.517  1.00  0.00    +0.035 C 
ATOM    155  CG  ARG A  21      21.474  27.681 -20.638  1.00  0.00    +0.029 C 
ATOM    156  CD  ARG A  21      20.380  27.790 -19.588  1.00  0.00    +0.129 C 
ATOM    157  NE  ARG A  21      19.744  26.500 -19.336  1.00  0.00    -0.234 NA
ATOM    158  CZ  ARG A  21      18.568  26.339 -18.736  1.00  0.00    +0.284 C 
ATOM    159  NH1 ARG A  21      17.434  26.595 -19.382  1.00  0.00    -0.104 N 
ATOM    160  NH2 ARG A  21      18.526  25.919 -17.474  1.00  0.00    -0.104 N 
ATOM    161  OXT ARG A  21      25.276  29.985 -21.287  1.00  0.00    -0.244 OA
ATOM    162  H   MET A   1       2.097  10.399  -5.247  1.00  0.00    +0.000 HD
ATOM    163  H   MET A   1       3.276   9.264  -5.556  1.00  0.00    +0.000 HD
ATOM    164  H   LYS A   2      -0.580   9.099  -6.106  1.00  0.00    +0.000 HD
ATOM    165  H   LYS A   2      -1.247   3.641 -10.468  1.00  0.00    +0.000 HD
ATOM    166  H   GLN A   3      -1.289  10.919  -8.123  1.00  0.00    +0.000 HD
ATOM    167  H   GLN A   3      -4.009  12.162  -4.248  1.00  0.00    +0.000 HD
ATOM    168  H   GLN A   3      -2.509  11.453  -3.854  1.00  0.00    +0.000 HD
ATOM    169  H   ALA A   4      -1.233  10.940 -10.669  1.00  0.00    +0.000 HD
ATOM    170  H   VAL A   5      -3.335   9.213 -14.203  1.00  0.00    +0.000 HD
ATOM    171  H   ASN A   6      -2.090  11.381 -14.983  1.00  0.00    +0.000 HD
ATOM    172  H   ASN A   6      -5.446  14.729 -16.608  1.00  0.00    +0.000 HD
ATOM    173  H   ASN A   6      -4.678  16.004 -17.440  1.00  0.00    +0.000 HD
ATOM    174  H   ALA A   7       0.081  12.048 -16.756  1.00  0.00    +0.000 HD
ATOM    175  H   LEU A   8      -0.221  13.311 -19.475  1.00  0.00    +0.000 HD
ATOM    176  H   LEU A   9       3.981  14.560 -21.089  1.00  0.00    +0.000 HD
ATOM    177  H   VAL A  10       2.187  18.807 -21.810  1.00  0.00    +0.000 HD
ATOM    178  H   PHE A  11       4.605  19.070 -20.639  1.00  0.00    +0.000 HD
ATOM    179  H   PHE A  12       6.586  19.363 -18.807  1.00  0.00    +0.000 HD
ATOM    180  H   ALA A  13       9.277  18.221 -19.508  1.00  0.00    +0.000 HD
ATOM    181  H   GLY A  14      11.668  18.847 -16.049  1.00  0.00    +0.000 HD
ATOM    182  H   SER A  15      15.300  16.036 -16.657  1.00  0.00    +0.000 HD
ATOM    183  H   SER A  15      16.881  14.842 -17.070  1.00  0.00    +0.000 HD
ATOM    184  H   SER A  16      16.234  19.366 -18.960  1.00  0.00    +0.000 HD
ATOM    185  H   SER A  16      17.825  21.593 -20.538  1.00  0.00    +0.000 HD
ATOM    186  H   ASP A  17      19.453  19.518 -22.222  1.00  0.00    +0.000 HD
ATOM    187  H   ASP A  17      23.950  20.046 -22.698  1.00  0.00    +0.000 HD
ATOM    188  H   ALA A  18      23.338  20.585 -20.058  1.00  0.00    +0.000 HD
ATOM    189  H   ILE A  19      25.278  22.313 -22.977  1.00  0.00    +0.000 HD
ATOM    190  H   ARG A  20      22.778  25.242 -22.260  1.00  0.00    +0.000 HD
ATOM    191  H   ARG A  20      16.712  30.032 -20.469  1.00  0.00    +0.000 HD
ATOM    192  H   ARG A  20      17.331  28.476 -20.792  1.00  0.00    +0.000 HD
ATOM    193  H   ARG A  20      17.865  31.894 -21.156  1.00  0.00    +0.000 HD
ATOM    194  H   ARG A  20      19.343  31.728 -21.989  1.00  0.00    +0.000 HD
ATOM    195  H   ARG A  21      24.318  27.572 -22.174  1.00  0.00    +0.000 HD
ATOM    196  H   ARG A  21      16.570  26.472 -18.928  1.00  0.00    +0.000 HD
ATOM    197  H   ARG A  21      17.459  26.907 -20.316  1.00  0.00    +0.000 HD
ATOM    198  H   ARG A  21      17.659  25.798 -17.024  1.00  0.00    +0.000 HD
ATOM    199  H   ARG A  21      19.362  25.730 -16.990  1.00  0.00    +0.000 HD
ATOM    200  H   ARG A  21      25.492  29.079 -21.190  1.00  0.00    +0.000 HD
ENDROOT
TORSDOF 0
