REMARK  Name = /var/folders/yp/yjbh3p597675h2qddgqr02y00000gn/T/tmp2sbp1u1y.pdb
REMARK     285 UNITARY VALUES FOR THE UNIT CELL AUTOMATICALLY SET
REMARK     285 BY MDANALYSIS PDBWRITER BECAUSE UNIT CELL INFORMATION
REMARK     285 WAS MISSING.
REMARK     285 PROTEIN DATA BANK CONVENTIONS REQUIRE THAT
REMARK     285 CRYST1 RECORD IS INCLUDED, BUT THE VALUES ON
REMARK     285 THIS RECORD ARE MEANINGLESS.
REMARK     285 UNITARY VALUES FOR THE UNIT CELL AUTOMATICALLY SET
REMARK     285 BY MDANALYSIS PDBWRITER BECAUSE UNIT CELL INFORMATION
REMARK     285 WAS MISSING.
REMARK     285 PROTEIN DATA BANK CONVENTIONS REQUIRE THAT
REMARK     285 CRYST1 RECORD IS INCLUDED, BUT THE VALUES ON
REMARK     285 THIS RECORD ARE MEANINGLESS.
REMARK                            x       y       z     vdW  Elec       q    Type
REMARK                         _______ _______ _______ _____ _____    ______ ____
ROOT
ATOM      1  N   MET A   1       0.330  11.856  10.291  1.00  0.00    -0.123 NA
ATOM      2  CA  MET A   1       1.447  11.402   9.467  1.00  0.00    +0.170 C 
ATOM      3  C   MET A   1       2.468  12.512   9.275  1.00  0.00    +0.259 C 
ATOM      4  O   MET A   1       2.390  13.272   8.312  1.00  0.00    -0.272 OA
ATOM      5  CB  MET A   1       0.958  10.922   8.110  1.00  0.00    +0.040 C 
ATOM      6  CG  MET A   1      -0.327  10.112   8.176  1.00  0.00    +0.060 C 
ATOM      7  SD  MET A   1      -1.460  10.487   6.814  1.00  0.00    -0.139 S 
ATOM      8  CE  MET A   1      -2.737  11.385   7.687  1.00  0.00    +0.069 C 
ATOM      9  N   LYS A   2       3.427  12.604  10.192  1.00  0.00    -0.197 N 
ATOM     10  CA  LYS A   2       4.837  12.508   9.829  1.00  0.00    +0.173 C 
ATOM     11  C   LYS A   2       5.164  11.136   9.263  1.00  0.00    +0.262 C 
ATOM     12  O   LYS A   2       5.948  11.018   8.323  1.00  0.00    -0.271 OA
ATOM     13  CB  LYS A   2       5.725  12.787  11.030  1.00  0.00    +0.031 C 
ATOM     14  CG  LYS A   2       5.918  14.265  11.323  1.00  0.00    +0.009 C 
ATOM     15  CD  LYS A   2       5.738  14.577  12.799  1.00  0.00    +0.049 C 
ATOM     16  CE  LYS A   2       6.881  14.122  13.589  1.00  0.00    +0.096 C 
ATOM     17  NZ  LYS A   2       7.955  13.520  13.089  1.00  0.00    -0.151 NA
ATOM     18  N   GLN A   3       4.562  10.096   9.835  1.00  0.00    -0.196 N 
ATOM     19  CA  GLN A   3       5.319   9.092  10.576  1.00  0.00    +0.173 C 
ATOM     20  C   GLN A   3       6.224   8.297   9.649  1.00  0.00    +0.262 C 
ATOM     21  O   GLN A   3       7.387   8.055   9.969  1.00  0.00    -0.271 OA
ATOM     22  CB  GLN A   3       4.386   8.143  11.312  1.00  0.00    +0.041 C 
ATOM     23  CG  GLN A   3       4.219   8.472  12.786  1.00  0.00    +0.091 C 
ATOM     24  CD  GLN A   3       3.209   9.582  13.031  1.00  0.00    +0.261 C 
ATOM     25  OE1 GLN A   3       3.088  10.520  12.228  1.00  0.00    -0.272 OA
ATOM     26  NE2 GLN A   3       2.477   9.486  14.136  1.00  0.00    -0.088 N 
ATOM     27  N   ALA A   4       5.692   7.889   8.500  1.00  0.00    -0.196 N 
ATOM     28  CA  ALA A   4       6.503   7.242   7.474  1.00  0.00    +0.173 C 
ATOM     29  C   ALA A   4       7.394   8.250   6.766  1.00  0.00    +0.262 C 
ATOM     30  O   ALA A   4       6.999   9.395   6.555  1.00  0.00    -0.271 OA
ATOM     31  CB  ALA A   4       5.623   6.539   6.453  1.00  0.00    +0.033 C 
ATOM     32  N   VAL A   5       8.600   7.825   6.400  1.00  0.00    -0.196 N 
ATOM     33  CA  VAL A   5       8.918   7.558   4.999  1.00  0.00    +0.173 C 
ATOM     34  C   VAL A   5       8.188   6.309   4.535  1.00  0.00    +0.262 C 
ATOM     35  O   VAL A   5       8.479   5.208   5.000  1.00  0.00    -0.271 OA
ATOM     36  CB  VAL A   5      10.412   7.383   4.780  1.00  0.00    +0.029 C 
ATOM     37  CG1 VAL A   5      10.891   8.242   3.611  1.00  0.00    +0.002 C 
ATOM     38  CG2 VAL A   5      11.186   7.809   6.026  1.00  0.00    +0.002 C 
ATOM     39  N   ASN A   6       7.240   6.478   3.619  1.00  0.00    -0.196 N 
ATOM     40  CA  ASN A   6       7.020   5.496   2.561  1.00  0.00    +0.182 C 
ATOM     41  C   ASN A   6       8.120   5.549   1.513  1.00  0.00    +0.262 C 
ATOM     42  O   ASN A   6       8.580   4.512   1.037  1.00  0.00    -0.271 OA
ATOM     43  CB  ASN A   6       5.672   5.707   1.893  1.00  0.00    +0.120 C 
ATOM     44  CG  ASN A   6       4.507   5.333   2.795  1.00  0.00    +0.263 C 
ATOM     45  OD1 ASN A   6       3.927   4.257   2.661  1.00  0.00    -0.272 OA
ATOM     46  ND2 ASN A   6       4.161   6.227   3.718  1.00  0.00    -0.088 N 
ATOM     47  N   ALA A   7       8.542   6.758   1.153  1.00  0.00    -0.196 N 
ATOM     48  CA  ALA A   7       7.887   7.503   0.083  1.00  0.00    +0.173 C 
ATOM     49  C   ALA A   7       8.010   6.773  -1.246  1.00  0.00    +0.262 C 
ATOM     50  O   ALA A   7       7.374   7.153  -2.227  1.00  0.00    -0.271 OA
ATOM     51  CB  ALA A   7       8.481   8.896  -0.048  1.00  0.00    +0.033 C 
ATOM     52  N   LEU A   8       8.828   5.725  -1.276  1.00  0.00    -0.196 N 
ATOM     53  CA  LEU A   8      10.064   5.749  -2.055  1.00  0.00    +0.173 C 
ATOM     54  C   LEU A   8       9.764   5.862  -3.541  1.00  0.00    +0.261 C 
ATOM     55  O   LEU A   8       8.934   5.126  -4.068  1.00  0.00    -0.271 OA
ATOM     56  CB  LEU A   8      10.886   4.497  -1.797  1.00  0.00    +0.031 C 
ATOM     57  CG  LEU A   8      11.762   4.513  -0.542  1.00  0.00    +0.002 C 
ATOM     58  CD1 LEU A   8      11.125   5.386   0.533  1.00  0.00    +0.000 C 
ATOM     59  CD2 LEU A   8      13.028   5.330  -0.783  1.00  0.00    +0.000 C 
ATOM     60  N   LEU A   9      10.443   6.786  -4.217  1.00  0.00    -0.202 N 
ATOM     61  CA  LEU A   9      10.574   6.722  -5.669  1.00  0.00    +0.139 C 
ATOM     62  C   LEU A   9      11.944   6.192  -6.065  1.00  0.00    +0.210 C 
ATOM     63  O   LEU A   9      12.082   5.511  -7.078  1.00  0.00    -0.327 OA
ATOM     64  CB  LEU A   9      10.362   8.092  -6.290  1.00  0.00    +0.026 C 
ATOM     65  CG  LEU A   9       8.931   8.634  -6.253  1.00  0.00    +0.002 C 
ATOM     66  CD1 LEU A   9       8.361   8.715  -7.664  1.00  0.00    +0.000 C 
ATOM     67  CD2 LEU A   9       8.930  10.120  -5.916  1.00  0.00    +0.000 C 
ATOM     68  N   VAL A  10      12.958   6.506  -5.263  1.00  0.00    -0.187 NA
ATOM     69  CA  VAL A  10      14.344   6.385  -5.708  1.00  0.00    +0.124 C 
ATOM     70  C   VAL A  10      14.861   4.988  -5.406  1.00  0.00    +0.234 C 
ATOM     71  O   VAL A  10      15.708   4.465  -6.128  1.00  0.00    -0.243 OA
ATOM     72  CB  VAL A  10      15.244   7.413  -5.045  1.00  0.00    +0.020 C 
ATOM     73  CG1 VAL A  10      14.677   8.821  -5.221  1.00  0.00    +0.002 C 
ATOM     74  CG2 VAL A  10      15.358   7.136  -3.547  1.00  0.00    +0.002 C 
ATOM     75  N   PHE A  11      14.352   4.382  -4.337  1.00  0.00    -0.273 N 
ATOM     76  CA  PHE A  11      15.115   3.384  -3.593  1.00  0.00    +0.098 C 
ATOM     77  C   PHE A  11      15.109   2.049  -4.319  1.00  0.00    +0.132 C 
ATOM     78  O   PHE A  11      15.970   1.203  -4.080  1.00  0.00    -0.243 OA
ATOM     79  CB  PHE A  11      14.553   3.204  -2.193  1.00  0.00    +0.106 C 
ATOM     80  CG  PHE A  11      15.515   2.577  -1.228  1.00  0.00    -0.006 A 
ATOM     81  CD1 PHE A  11      16.822   3.043  -1.147  1.00  0.00    -0.003 A 
ATOM     82  CE1 PHE A  11      17.714   2.461  -0.253  1.00  0.00    -0.000 A 
ATOM     83  CD2 PHE A  11      15.099   1.529  -0.414  1.00  0.00    -0.003 A 
ATOM     84  CE2 PHE A  11      15.990   0.947   0.479  1.00  0.00    -0.000 A 
ATOM     85  CZ  PHE A  11      17.297   1.413   0.561  1.00  0.00    -0.000 A 
ATOM     86  N   PHE A  12      14.136   1.857  -5.206  1.00  0.00    +0.475 N 
ATOM     87  CA  PHE A  12      13.169   0.776  -5.051  1.00  0.00    +0.148 C 
ATOM     88  C   PHE A  12      13.869  -0.573  -5.016  1.00  0.00    +0.250 C 
ATOM     89  O   PHE A  12      14.249  -1.107  -6.056  1.00  0.00    -0.273 OA
ATOM     90  CB  PHE A  12      12.152   0.792  -6.180  1.00  0.00    +0.044 C 
ATOM     91  CG  PHE A  12      10.874   0.076  -5.858  1.00  0.00    -0.021 A 
ATOM     92  CD1 PHE A  12      10.909  -1.235  -5.398  1.00  0.00    -0.004 A 
ATOM     93  CE1 PHE A  12       9.723  -1.900  -5.100  1.00  0.00    -0.000 A 
ATOM     94  CD2 PHE A  12       9.655   0.723  -6.019  1.00  0.00    -0.004 A 
ATOM     95  CE2 PHE A  12       8.470   0.061  -5.722  1.00  0.00    -0.000 A 
ATOM     96  CZ  PHE A  12       8.505  -1.251  -5.262  1.00  0.00    -0.000 A 
ATOM     97  N   ALA A  13      14.041  -1.124  -3.817  1.00  0.00    -0.198 N 
ATOM     98  CA  ALA A  13      13.238  -2.264  -3.383  1.00  0.00    +0.173 C 
ATOM     99  C   ALA A  13      11.820  -1.837  -3.044  1.00  0.00    +0.261 C 
ATOM    100  O   ALA A  13      10.891  -2.642  -3.116  1.00  0.00    -0.271 OA
ATOM    101  CB  ALA A  13      13.868  -2.938  -2.175  1.00  0.00    +0.033 C 
ATOM    102  N   GLY A  14      11.650  -0.571  -2.675  1.00  0.00    -0.200 N 
ATOM    103  CA  GLY A  14      12.788   0.295  -2.382  1.00  0.00    +0.163 C 
ATOM    104  C   GLY A  14      13.019   1.288  -3.509  1.00  0.00    +0.210 C 
ATOM    105  O   GLY A  14      12.287   1.293  -4.497  1.00  0.00    -0.352 OA
ATOM    106  N   SER A  15      14.040   2.129  -3.363  1.00  0.00    -0.187 NA
ATOM    107  CA  SER A  15      14.451   3.020  -4.443  1.00  0.00    +0.063 C 
ATOM    108  C   SER A  15      15.200   2.263  -5.528  1.00  0.00    +0.176 C 
ATOM    109  O   SER A  15      15.900   1.292  -5.242  1.00  0.00    -0.229 OA
ATOM    110  CB  SER A  15      15.329   4.140  -3.909  1.00  0.00    +0.226 C 
ATOM    111  OG  SER A  15      16.591   3.640  -3.503  1.00  0.00    -0.275 OA
ATOM    112  N   SER A  16      15.050   2.702  -6.774  1.00  0.00    -0.199 NA
ATOM    113  CA  SER A  16      16.189   3.178  -7.554  1.00  0.00    +0.184 C 
ATOM    114  C   SER A  16      16.430   4.662  -7.330  1.00  0.00    +0.267 C 
ATOM    115  O   SER A  16      17.562   5.132  -7.428  1.00  0.00    -0.271 OA
ATOM    116  CB  SER A  16      15.972   2.916  -9.035  1.00  0.00    +0.209 C 
ATOM    117  OG  SER A  16      14.711   3.410  -9.453  1.00  0.00    -0.218 OA
ATOM    118  N   ASP A  17      15.366   5.400  -7.031  1.00  0.00    -0.155 N 
ATOM    119  CA  ASP A  17      14.484   5.922  -8.070  1.00  0.00    +0.219 C 
ATOM    120  C   ASP A  17      14.791   7.381  -8.365  1.00  0.00    +0.265 C 
ATOM    121  O   ASP A  17      15.296   8.099  -7.504  1.00  0.00    -0.271 OA
ATOM    122  CB  ASP A  17      13.025   5.782  -7.667  1.00  0.00    +0.249 C 
ATOM    123  CG  ASP A  17      12.582   4.333  -7.531  1.00  0.00    +0.394 C 
ATOM    124  OD1 ASP A  17      12.263   3.896  -6.404  1.00  0.00    -0.243 OA
ATOM    125  OD2 ASP A  17      12.551   3.625  -8.560  1.00  0.00    -0.243 OA
ATOM    126  N   ALA A  18      14.488   7.822  -9.583  1.00  0.00    -0.196 N 
ATOM    127  CA  ALA A  18      14.048   9.195  -9.807  1.00  0.00    +0.173 C 
ATOM    128  C   ALA A  18      12.710   9.455  -9.137  1.00  0.00    +0.262 C 
ATOM    129  O   ALA A  18      11.662   9.102  -9.676  1.00  0.00    -0.271 OA
ATOM    130  CB  ALA A  18      13.936   9.489 -11.294  1.00  0.00    +0.033 C 
ATOM    131  N   ILE A  19      12.741  10.076  -7.961  1.00  0.00    -0.196 N 
ATOM    132  CA  ILE A  19      11.966  11.289  -7.720  1.00  0.00    +0.173 C 
ATOM    133  C   ILE A  19      12.864  12.507  -7.855  1.00  0.00    +0.262 C 
ATOM    134  O   ILE A  19      13.737  12.735  -7.019  1.00  0.00    -0.271 OA
ATOM    135  CB  ILE A  19      11.318  11.286  -6.345  1.00  0.00    +0.031 C 
ATOM    136  CG1 ILE A  19      10.344  10.117  -6.210  1.00  0.00    +0.000 C 
ATOM    137  CG2 ILE A  19      10.571  12.596  -6.106  1.00  0.00    +0.002 C 
ATOM    138  CD1 ILE A  19       9.483  10.170  -4.958  1.00  0.00    +0.000 C 
ATOM    139  N   ARG A  20      12.652  13.292  -8.907  1.00  0.00    -0.196 N 
ATOM    140  CA  ARG A  20      12.945  14.721  -8.861  1.00  0.00    +0.173 C 
ATOM    141  C   ARG A  20      11.786  15.497  -8.261  1.00  0.00    +0.262 C 
ATOM    142  O   ARG A  20      11.965  16.613  -7.774  1.00  0.00    -0.271 OA
ATOM    143  CB  ARG A  20      13.249  15.258 -10.251  1.00  0.00    +0.033 C 
ATOM    144  CG  ARG A  20      12.308  14.738 -11.327  1.00  0.00    +0.029 C 
ATOM    145  CD  ARG A  20      11.096  15.640 -11.500  1.00  0.00    +0.128 C 
ATOM    146  NE  ARG A  20       9.893  15.039 -10.932  1.00  0.00    -0.240 NA
ATOM    147  CZ  ARG A  20       8.661  15.510 -11.096  1.00  0.00    +0.237 C 
ATOM    148  NH1 ARG A  20       8.432  16.549 -11.894  1.00  0.00    -0.089 N 
ATOM    149  NH2 ARG A  20       7.647  14.935 -10.456  1.00  0.00    -0.205 N 
ATOM    150  N   ARG A  21      10.593  14.909  -8.293  1.00  0.00    -0.192 N 
ATOM    151  CA  ARG A  21       9.369  15.654  -8.016  1.00  0.00    +0.218 C 
ATOM    152  C   ARG A  21       8.650  15.086  -6.801  1.00  0.00    +0.386 C 
ATOM    153  O   ARG A  21       8.235  15.832  -5.916  1.00  0.00    -0.244 OA
ATOM    154  CB  ARG A  21       8.436  15.631  -9.215  1.00  0.00    +0.128 C 
ATOM    155  CG  ARG A  21       7.169  16.447  -9.023  1.00  0.00    +0.050 C 
ATOM    156  CD  ARG A  21       6.668  17.029 -10.335  1.00  0.00    +0.131 C 
ATOM    157  NE  ARG A  21       5.401  17.734 -10.163  1.00  0.00    -0.234 NA
ATOM    158  CZ  ARG A  21       5.246  19.051 -10.268  1.00  0.00    +0.284 C 
ATOM    159  NH1 ARG A  21       6.283  19.837 -10.546  1.00  0.00    -0.104 N 
ATOM    160  NH2 ARG A  21       4.042  19.588 -10.091  1.00  0.00    -0.104 N 
ATOM    161  OXT ARG A  21       8.475  13.874  -6.690  1.00  0.00    -0.244 OA
ATOM    162  H   MET A   1       0.681  12.172  11.195  1.00  0.00    +0.000 HD
ATOM    163  H   MET A   1      -0.324  11.086  10.431  1.00  0.00    +0.000 HD
ATOM    164  H   LYS A   2       3.180  12.740  11.135  1.00  0.00    +0.000 HD
ATOM    165  H   LYS A   2       8.019  13.352  12.121  1.00  0.00    +0.000 HD
ATOM    166  H   GLN A   3       3.585  10.002   9.757  1.00  0.00    +0.000 HD
ATOM    167  H   GLN A   3       1.807  10.177  14.345  1.00  0.00    +0.000 HD
ATOM    168  H   GLN A   3       2.604   8.723  14.746  1.00  0.00    +0.000 HD
ATOM    169  H   ALA A   4       4.731   8.027   8.338  1.00  0.00    +0.000 HD
ATOM    170  H   VAL A   5       9.292   7.687   7.086  1.00  0.00    +0.000 HD
ATOM    171  H   ASN A   6       6.673   7.283   3.654  1.00  0.00    +0.000 HD
ATOM    172  H   ASN A   6       4.654   7.076   3.789  1.00  0.00    +0.000 HD
ATOM    173  H   ASN A   6       3.412   6.039   4.329  1.00  0.00    +0.000 HD
ATOM    174  H   ALA A   7       9.312   7.158   1.618  1.00  0.00    +0.000 HD
ATOM    175  H   LEU A   8       8.597   4.917  -0.763  1.00  0.00    +0.000 HD
ATOM    176  H   LEU A   9      10.864   7.529  -3.727  1.00  0.00    +0.000 HD
ATOM    177  H   VAL A  10      12.824   7.482  -4.997  1.00  0.00    +0.000 HD
ATOM    178  H   ALA A  13      14.723  -0.755  -3.210  1.00  0.00    +0.000 HD
ATOM    179  H   GLY A  14      10.738  -0.210  -2.598  1.00  0.00    +0.000 HD
ATOM    180  H   SER A  15      14.848   1.515  -3.468  1.00  0.00    +0.000 HD
ATOM    181  H   SER A  16      14.639   1.933  -7.303  1.00  0.00    +0.000 HD
ATOM    182  H   SER A  16      14.674   4.368  -9.304  1.00  0.00    +0.000 HD
ATOM    183  H   ASP A  17      12.299   4.458  -5.656  1.00  0.00    +0.000 HD
ATOM    184  H   ALA A  18      14.562   7.208 -10.349  1.00  0.00    +0.000 HD
ATOM    185  H   ILE A  19      13.299   9.709  -7.237  1.00  0.00    +0.000 HD
ATOM    186  H   ARG A  20      12.288  12.901  -9.734  1.00  0.00    +0.000 HD
ATOM    187  H   ARG A  20       9.180  16.977 -12.371  1.00  0.00    +0.000 HD
ATOM    188  H   ARG A  20       7.515  16.889 -12.010  1.00  0.00    +0.000 HD
ATOM    189  H   ARG A  20       6.849  14.386 -10.636  1.00  0.00    +0.000 HD
ATOM    190  H   ARG A  21      10.535  13.950  -8.509  1.00  0.00    +0.000 HD
ATOM    191  H   ARG A  21       8.361  16.758  -5.986  1.00  0.00    +0.000 HD
ATOM    192  H   ARG A  21       7.176  19.444 -10.678  1.00  0.00    +0.000 HD
ATOM    193  H   ARG A  21       6.157  20.810 -10.620  1.00  0.00    +0.000 HD
ATOM    194  H   ARG A  21       3.922  20.561 -10.167  1.00  0.00    +0.000 HD
ATOM    195  H   ARG A  21       3.271  19.010  -9.884  1.00  0.00    +0.000 HD
ENDROOT
TORSDOF 0
