REMARK  Name = /var/folders/yp/yjbh3p597675h2qddgqr02y00000gn/T/tmp_7xjxwcv.pdb
REMARK     285 UNITARY VALUES FOR THE UNIT CELL AUTOMATICALLY SET
REMARK     285 BY MDANALYSIS PDBWRITER BECAUSE UNIT CELL INFORMATION
REMARK     285 WAS MISSING.
REMARK     285 PROTEIN DATA BANK CONVENTIONS REQUIRE THAT
REMARK     285 CRYST1 RECORD IS INCLUDED, BUT THE VALUES ON
REMARK     285 THIS RECORD ARE MEANINGLESS.
REMARK     285 UNITARY VALUES FOR THE UNIT CELL AUTOMATICALLY SET
REMARK     285 BY MDANALYSIS PDBWRITER BECAUSE UNIT CELL INFORMATION
REMARK     285 WAS MISSING.
REMARK     285 PROTEIN DATA BANK CONVENTIONS REQUIRE THAT
REMARK     285 CRYST1 RECORD IS INCLUDED, BUT THE VALUES ON
REMARK     285 THIS RECORD ARE MEANINGLESS.
REMARK                            x       y       z     vdW  Elec       q    Type
REMARK                         _______ _______ _______ _____ _____    ______ ____
REMARK  Name = /var/folders/yp/yjbh3p597675h2qddgqr02y00000gn/T/tmp_7xjxwcv.pdb
REMARK     285 UNITARY VALUES FOR THE UNIT CELL AUTOMATICALLY SET
REMARK     285 BY MDANALYSIS PDBWRITER BECAUSE UNIT CELL INFORMATION
REMARK     285 WAS MISSING.
REMARK     285 PROTEIN DATA BANK CONVENTIONS REQUIRE THAT
REMARK     285 CRYST1 RECORD IS INCLUDED, BUT THE VALUES ON
REMARK     285 THIS RECORD ARE MEANINGLESS.
REMARK     285 UNITARY VALUES FOR THE UNIT CELL AUTOMATICALLY SET
REMARK     285 BY MDANALYSIS PDBWRITER BECAUSE UNIT CELL INFORMATION
REMARK     285 WAS MISSING.
REMARK     285 PROTEIN DATA BANK CONVENTIONS REQUIRE THAT
REMARK     285 CRYST1 RECORD IS INCLUDED, BUT THE VALUES ON
REMARK     285 THIS RECORD ARE MEANINGLESS.
REMARK                            x       y       z     vdW  Elec       q    Type
REMARK                         _______ _______ _______ _____ _____    ______ ____
REMARK  Name = /var/folders/yp/yjbh3p597675h2qddgqr02y00000gn/T/tmp_7xjxwcv.pdb
REMARK     285 UNITARY VALUES FOR THE UNIT CELL AUTOMATICALLY SET
REMARK     285 BY MDANALYSIS PDBWRITER BECAUSE UNIT CELL INFORMATION
REMARK     285 WAS MISSING.
REMARK     285 PROTEIN DATA BANK CONVENTIONS REQUIRE THAT
REMARK     285 CRYST1 RECORD IS INCLUDED, BUT THE VALUES ON
REMARK     285 THIS RECORD ARE MEANINGLESS.
REMARK     285 UNITARY VALUES FOR THE UNIT CELL AUTOMATICALLY SET
REMARK     285 BY MDANALYSIS PDBWRITER BECAUSE UNIT CELL INFORMATION
REMARK     285 WAS MISSING.
REMARK     285 PROTEIN DATA BANK CONVENTIONS REQUIRE THAT
REMARK     285 CRYST1 RECORD IS INCLUDED, BUT THE VALUES ON
REMARK     285 THIS RECORD ARE MEANINGLESS.
REMARK                            x       y       z     vdW  Elec       q    Type
REMARK                         _______ _______ _______ _____ _____    ______ ____
REMARK  Name = /var/folders/yp/yjbh3p597675h2qddgqr02y00000gn/T/tmp_7xjxwcv.pdb
REMARK     285 UNITARY VALUES FOR THE UNIT CELL AUTOMATICALLY SET
REMARK     285 BY MDANALYSIS PDBWRITER BECAUSE UNIT CELL INFORMATION
REMARK     285 WAS MISSING.
REMARK     285 PROTEIN DATA BANK CONVENTIONS REQUIRE THAT
REMARK     285 CRYST1 RECORD IS INCLUDED, BUT THE VALUES ON
REMARK     285 THIS RECORD ARE MEANINGLESS.
REMARK     285 UNITARY VALUES FOR THE UNIT CELL AUTOMATICALLY SET
REMARK     285 BY MDANALYSIS PDBWRITER BECAUSE UNIT CELL INFORMATION
REMARK     285 WAS MISSING.
REMARK     285 PROTEIN DATA BANK CONVENTIONS REQUIRE THAT
REMARK     285 CRYST1 RECORD IS INCLUDED, BUT THE VALUES ON
REMARK     285 THIS RECORD ARE MEANINGLESS.
REMARK                            x       y       z     vdW  Elec       q    Type
REMARK                         _______ _______ _______ _____ _____    ______ ____
REMARK  Name = /var/folders/yp/yjbh3p597675h2qddgqr02y00000gn/T/tmp_7xjxwcv.pdb
REMARK     285 UNITARY VALUES FOR THE UNIT CELL AUTOMATICALLY SET
REMARK     285 BY MDANALYSIS PDBWRITER BECAUSE UNIT CELL INFORMATION
REMARK     285 WAS MISSING.
REMARK     285 PROTEIN DATA BANK CONVENTIONS REQUIRE THAT
REMARK     285 CRYST1 RECORD IS INCLUDED, BUT THE VALUES ON
REMARK     285 THIS RECORD ARE MEANINGLESS.
REMARK     285 UNITARY VALUES FOR THE UNIT CELL AUTOMATICALLY SET
REMARK     285 BY MDANALYSIS PDBWRITER BECAUSE UNIT CELL INFORMATION
REMARK     285 WAS MISSING.
REMARK     285 PROTEIN DATA BANK CONVENTIONS REQUIRE THAT
REMARK     285 CRYST1 RECORD IS INCLUDED, BUT THE VALUES ON
REMARK     285 THIS RECORD ARE MEANINGLESS.
REMARK                            x       y       z     vdW  Elec       q    Type
REMARK                         _______ _______ _______ _____ _____    ______ ____
REMARK  Name = /var/folders/yp/yjbh3p597675h2qddgqr02y00000gn/T/tmp_7xjxwcv.pdb
REMARK     285 UNITARY VALUES FOR THE UNIT CELL AUTOMATICALLY SET
REMARK     285 BY MDANALYSIS PDBWRITER BECAUSE UNIT CELL INFORMATION
REMARK     285 WAS MISSING.
REMARK     285 PROTEIN DATA BANK CONVENTIONS REQUIRE THAT
REMARK     285 CRYST1 RECORD IS INCLUDED, BUT THE VALUES ON
REMARK     285 THIS RECORD ARE MEANINGLESS.
REMARK     285 UNITARY VALUES FOR THE UNIT CELL AUTOMATICALLY SET
REMARK     285 BY MDANALYSIS PDBWRITER BECAUSE UNIT CELL INFORMATION
REMARK     285 WAS MISSING.
REMARK     285 PROTEIN DATA BANK CONVENTIONS REQUIRE THAT
REMARK     285 CRYST1 RECORD IS INCLUDED, BUT THE VALUES ON
REMARK     285 THIS RECORD ARE MEANINGLESS.
REMARK                            x       y       z     vdW  Elec       q    Type
REMARK                         _______ _______ _______ _____ _____    ______ ____
ROOT
ATOM      1  N   MET A   1     -26.507   5.962   6.477  1.00  0.00    -0.123 NA
ATOM      2  CA  MET A   1     -27.297   7.175   6.673  1.00  0.00    +0.170 C 
ATOM      3  C   MET A   1     -28.774   6.906   6.440  1.00  0.00    +0.267 C 
ATOM      4  O   MET A   1     -29.138   6.176   5.519  1.00  0.00    -0.271 OA
ATOM      5  CB  MET A   1     -26.830   8.282   5.740  1.00  0.00    +0.028 C 
ATOM      6  CG  MET A   1     -27.138   9.680   6.251  1.00  0.00    +0.002 C 
ATOM      7  N   LYS A   2     -29.627   7.495   7.275  1.00  0.00    -0.137 N 
ATOM      8  CA  LYS A   2     -30.904   6.876   7.617  1.00  0.00    +0.244 C 
ATOM      9  CB  LYS A   2     -31.379   7.338   8.985  1.00  0.00    +0.056 C 
ATOM     10  CG  LYS A   2     -30.715   6.614  10.145  1.00  0.00    +0.006 C 
ATOM     11  CD  LYS A   2     -30.840   7.393  11.443  1.00  0.00    +0.022 C 
ATOM     12  CE  LYS A   2     -32.191   7.916  11.631  1.00  0.00    +0.085 C 
ATOM     13  NZ  LYS A   2     -32.963   8.388  10.657  1.00  0.00    -0.134 NA
ATOM     14  NE2 GLN A   3     -31.171  11.796   8.296  1.00  0.00    -0.078 NA
ATOM     15  O   LEU A   9     -30.469   7.146   6.633  1.00  0.00    -0.241 OA
ATOM     16  C   PHE A  11     -31.706  12.900   7.987  1.00  0.00    +0.257 C 
ATOM     17  O   PHE A  11     -31.716  14.087   7.664  1.00  0.00    -0.209 OA
ATOM     18  N   PHE A  12     -30.919  12.420   8.945  1.00  0.00    -0.125 N 
ATOM     19  CA  PHE A  12     -30.855  13.047  10.262  1.00  0.00    +0.196 C 
ATOM     20  C   PHE A  12     -30.231  14.431  10.170  1.00  0.00    +0.264 C 
ATOM     21  O   PHE A  12     -29.130  14.653  10.673  1.00  0.00    -0.271 OA
ATOM     22  CB  PHE A  12     -30.053  12.193  11.232  1.00  0.00    +0.059 C 
ATOM     23  CG  PHE A  12     -30.804  11.006  11.756  1.00  0.00    -0.024 C 
ATOM     24  CD1 PHE A  12     -31.902  11.189  12.589  1.00  0.00    -0.009 C 
ATOM     25  CE1 PHE A  12     -32.599  10.090  13.076  1.00  0.00    -0.025 C 
ATOM     26  CD2 PHE A  12     -30.403   9.720  11.411  1.00  0.00    -0.029 C 
ATOM     27  CE2 PHE A  12     -31.099   8.620  11.897  1.00  0.00    +0.040 C 
ATOM     28  CZ  PHE A  12     -32.197   8.805  12.730  1.00  0.00    +0.044 C 
ATOM     29  N   ALA A  13     -30.932  15.360   9.528  1.00  0.00    -0.196 N 
ATOM     30  CA  ALA A  13     -30.858  16.766   9.910  1.00  0.00    +0.173 C 
ATOM     31  C   ALA A  13     -31.279  16.964  11.357  1.00  0.00    +0.262 C 
ATOM     32  O   ALA A  13     -30.853  17.917  12.007  1.00  0.00    -0.271 OA
ATOM     33  CB  ALA A  13     -31.734  17.619   9.007  1.00  0.00    +0.033 C 
ATOM     34  N   GLY A  14     -32.115  16.063  11.864  1.00  0.00    -0.194 N 
ATOM     35  CA  GLY A  14     -32.972  16.377  13.003  1.00  0.00    +0.201 C 
ATOM     36  C   GLY A  14     -32.191  16.301  14.305  1.00  0.00    +0.264 C 
ATOM     37  O   GLY A  14     -31.033  15.888  14.316  1.00  0.00    -0.271 OA
ATOM     38  N   SER A  15     -32.825  16.700  15.405  1.00  0.00    -0.194 N 
ATOM     39  CA  SER A  15     -32.175  16.664  16.712  1.00  0.00    +0.205 C 
ATOM     40  C   SER A  15     -32.032  15.238  17.218  1.00  0.00    +0.264 C 
ATOM     41  O   SER A  15     -32.984  14.459  17.165  1.00  0.00    -0.271 OA
ATOM     42  CB  SER A  15     -32.958  17.486  17.722  1.00  0.00    +0.213 C 
ATOM     43  OG  SER A  15     -32.881  18.868  17.416  1.00  0.00    -0.218 OA
ATOM     44  N   SER A  16     -30.846  14.896  17.710  1.00  0.00    -0.194 N 
ATOM     45  CA  SER A  16     -30.704  13.792  18.655  1.00  0.00    +0.205 C 
ATOM     46  C   SER A  16     -31.039  14.232  20.072  1.00  0.00    +0.264 C 
ATOM     47  O   SER A  16     -31.083  13.411  20.986  1.00  0.00    -0.271 OA
ATOM     48  CB  SER A  16     -29.291  13.232  18.619  1.00  0.00    +0.213 C 
ATOM     49  OG  SER A  16     -28.363  14.179  19.116  1.00  0.00    -0.218 OA
ATOM     50  N   ASP A  17     -31.277  15.529  20.253  1.00  0.00    -0.196 N 
ATOM     51  CA  ASP A  17     -31.690  16.050  21.553  1.00  0.00    +0.184 C 
ATOM     52  C   ASP A  17     -33.160  16.439  21.542  1.00  0.00    +0.262 C 
ATOM     53  O   ASP A  17     -33.662  16.950  20.542  1.00  0.00    -0.271 OA
ATOM     54  CB  ASP A  17     -30.850  17.253  21.947  1.00  0.00    +0.145 C 
ATOM     55  CG  ASP A  17     -30.469  17.258  23.418  1.00  0.00    +0.367 C 
ATOM     56  OD1 ASP A  17     -30.597  16.208  24.085  1.00  0.00    -0.246 OA
ATOM     57  OD2 ASP A  17     -30.035  18.321  23.912  1.00  0.00    -0.246 OA
ATOM     58  N   ALA A  18     -33.850  16.196  22.653  1.00  0.00    -0.196 N 
ATOM     59  CA  ALA A  18     -34.463  17.277  23.418  1.00  0.00    +0.173 C 
ATOM     60  C   ALA A  18     -33.692  17.547  24.700  1.00  0.00    +0.262 C 
ATOM     61  O   ALA A  18     -33.368  16.618  25.440  1.00  0.00    -0.271 OA
ATOM     62  CB  ALA A  18     -35.908  16.947  23.755  1.00  0.00    +0.033 C 
ATOM     63  N   ILE A  19     -33.396  18.815  24.965  1.00  0.00    -0.196 N 
ATOM     64  CA  ILE A  19     -34.101  19.561  26.003  1.00  0.00    +0.171 C 
ATOM     65  C   ILE A  19     -35.484  19.950  25.504  1.00  0.00    +0.247 C 
ATOM     66  O   ILE A  19     -35.615  20.603  24.469  1.00  0.00    -0.273 OA
ATOM     67  CB  ILE A  19     -33.342  20.809  26.421  1.00  0.00    +0.029 C 
ATOM     68  CG1 ILE A  19     -33.330  20.948  27.941  1.00  0.00    +0.002 C 
ATOM     69  CG2 ILE A  19     -33.976  22.052  25.802  1.00  0.00    +0.002 C 
ATOM     70  CD1 ILE A  19     -32.183  21.792  28.475  1.00  0.00    +0.000 C 
ATOM     71  N   ARG A  20     -36.517  19.550  26.239  1.00  0.00    -0.233 NA
ATOM     72  CA  ARG A  20     -37.813  20.217  26.157  1.00  0.00    +0.156 C 
ATOM     73  C   ARG A  20     -37.836  21.468  27.021  1.00  0.00    +0.260 C 
ATOM     74  O   ARG A  20     -38.602  22.394  26.759  1.00  0.00    -0.272 OA
ATOM     75  CB  ARG A  20     -38.933  19.284  26.585  1.00  0.00    +0.031 C 
ATOM     76  CG  ARG A  20     -38.755  18.710  27.981  1.00  0.00    +0.021 C 
ATOM     77  CD  ARG A  20     -37.322  18.847  28.470  1.00  0.00    +0.095 C 
ATOM     78  NE  ARG A  20     -36.404  19.148  27.376  1.00  0.00    -0.170 NA
ATOM     79  CZ  ARG A  20     -35.809  18.237  26.612  1.00  0.00    +0.283 C 
ATOM     80  NH1 ARG A  20     -36.353  17.857  25.459  1.00  0.00    -0.077 NA
ATOM     81  NH2 ARG A  20     -34.658  17.699  27.007  1.00  0.00    -0.077 NA
ATOM     82  N   ARG A  21     -36.997  21.496  28.053  1.00  0.00    -0.194 N 
ATOM     83  CA  ARG A  21     -37.167  22.450  29.146  1.00  0.00    +0.198 C 
ATOM     84  C   ARG A  21     -36.051  23.481  29.147  1.00  0.00    +0.384 C 
ATOM     85  O   ARG A  21     -35.307  23.598  28.175  1.00  0.00    -0.244 OA
ATOM     86  CB  ARG A  21     -37.201  21.737  30.487  1.00  0.00    +0.035 C 
ATOM     87  CG  ARG A  21     -37.477  22.655  31.665  1.00  0.00    +0.029 C 
ATOM     88  CD  ARG A  21     -38.410  22.011  32.678  1.00  0.00    +0.129 C 
ATOM     89  NE  ARG A  21     -38.675  22.897  33.807  1.00  0.00    -0.234 NA
ATOM     90  CZ  ARG A  21     -38.097  22.800  35.000  1.00  0.00    +0.284 C 
ATOM     91  NH1 ARG A  21     -37.202  21.847  35.244  1.00  0.00    -0.104 N 
ATOM     92  NH2 ARG A  21     -38.416  23.664  35.958  1.00  0.00    -0.104 N 
ATOM     93  OXT ARG A  21     -35.878  24.213  30.120  1.00  0.00    -0.244 OA
ATOM     94  H   MET A   1     -25.521   6.168   6.639  1.00  0.00    +0.000 HD
ATOM     95  H   MET A   1     -26.631   5.626   5.523  1.00  0.00    +0.000 HD
ATOM     96  H   LYS A   2     -32.952   7.740   9.870  1.00  0.00    +0.000 HD
ATOM     97  H   LYS A   2     -32.612   9.297  10.354  1.00  0.00    +0.000 HD
ATOM     98  H   PHE A  12     -30.349  13.024   8.418  1.00  0.00    +0.000 HD
ATOM     99  H   ALA A  13     -31.513  15.094   8.780  1.00  0.00    +0.000 HD
ATOM    100  H   GLY A  14     -32.158  15.165  11.462  1.00  0.00    +0.000 HD
ATOM    101  H   SER A  15     -33.752  17.025  15.336  1.00  0.00    +0.000 HD
ATOM    102  H   SER A  15     -33.260  19.026  16.537  1.00  0.00    +0.000 HD
ATOM    103  H   SER A  16     -30.046  15.398  17.431  1.00  0.00    +0.000 HD
ATOM    104  H   SER A  16     -28.582  14.394  20.036  1.00  0.00    +0.000 HD
ATOM    105  H   ASP A  17     -31.171  16.149  19.496  1.00  0.00    +0.000 HD
ATOM    106  H   ASP A  17     -30.926  15.431  23.677  1.00  0.00    +0.000 HD
ATOM    107  H   ALA A  18     -33.949  15.268  22.965  1.00  0.00    +0.000 HD
ATOM    108  H   ILE A  19     -32.685  19.261  24.450  1.00  0.00    +0.000 HD
ATOM    109  H   ARG A  20     -35.759  17.156  25.017  1.00  0.00    +0.000 HD
ATOM    110  H   ARG A  20     -36.443  18.665  24.843  1.00  0.00    +0.000 HD
ATOM    111  H   ARG A  20     -34.341  17.025  26.311  1.00  0.00    +0.000 HD
ATOM    112  H   ARG A  20     -34.792  17.227  27.901  1.00  0.00    +0.000 HD
ATOM    113  H   ARG A  21     -36.246  20.861  28.080  1.00  0.00    +0.000 HD
ATOM    114  H   ARG A  21     -36.962  21.205  34.538  1.00  0.00    +0.000 HD
ATOM    115  H   ARG A  21     -36.779  21.784  36.130  1.00  0.00    +0.000 HD
ATOM    116  H   ARG A  21     -37.991  23.596  36.843  1.00  0.00    +0.000 HD
ATOM    117  H   ARG A  21     -39.078  24.372  35.782  1.00  0.00    +0.000 HD
ATOM    118  H   ARG A  21     -36.436  24.136  30.869  1.00  0.00    +0.000 HD
ATOM      1  SD  MET A   1     -28.836  10.197   5.891  1.00  0.00    +0.134 S 
ATOM      2  OE1 GLN A   3     -30.430  10.718   6.460  1.00  0.00    -0.205 OA
ATOM      3  C   VAL A  10     -31.060  10.369   6.214  1.00  0.00    +0.219 C 
ATOM      4  O   VAL A  10     -29.925  10.840   6.242  1.00  0.00    -0.147 OA
ATOM      5  H   MET A   1     -27.920  11.082   5.412  1.00  0.00    +0.000 HD
ATOM      1  CE  MET A   1     -29.104   9.377   4.323  1.00  0.00    +0.000 C 
ATOM      1  C   LYS A   2     -31.964   7.196   6.576  1.00  0.00    +0.203 C 
ATOM      2  O   LYS A   2     -32.835   6.373   6.298  1.00  0.00    -0.217 OA
ATOM      3  N   GLN A   3     -31.890   8.391   5.998  1.00  0.00    -0.144 NA
ATOM      4  CA  GLN A   3     -33.044   8.985   5.329  1.00  0.00    +0.090 C 
ATOM      5  C   GLN A   3     -33.222   8.412   3.932  1.00  0.00    +0.032 C 
ATOM      6  O   GLN A   3     -33.947   8.975   3.114  1.00  0.00    -0.354 OA
ATOM      7  CB  GLN A   3     -32.903  10.496   5.242  1.00  0.00    +0.023 C 
ATOM      8  N   ALA A   4     -32.558   7.293   3.658  1.00  0.00    -0.106 NA
ATOM      9  CA  ALA A   4     -32.407   6.815   2.287  1.00  0.00    +0.126 C 
ATOM     10  C   ALA A   4     -33.756   6.475   1.675  1.00  0.00    +0.159 C 
ATOM     11  O   ALA A   4     -34.627   5.925   2.348  1.00  0.00    -0.406 OA
ATOM     12  CB  ALA A   4     -31.505   5.594   2.237  1.00  0.00    +0.022 C 
ATOM     13  N   VAL A   5     -33.932   6.801   0.398  1.00  0.00    -0.201 NA
ATOM     14  CA  VAL A   5     -32.980   7.654  -0.308  1.00  0.00    +0.152 C 
ATOM     15  C   VAL A   5     -33.037   9.063   0.259  1.00  0.00    +0.277 C 
ATOM     16  O   VAL A   5     -32.104   9.846   0.080  1.00  0.00    -0.270 OA
ATOM     17  CB  VAL A   5     -33.254   7.697  -1.802  1.00  0.00    +0.025 C 
ATOM     18  CG1 VAL A   5     -32.078   7.115  -2.584  1.00  0.00    +0.002 C 
ATOM     19  CG2 VAL A   5     -34.497   6.875  -2.138  1.00  0.00    +0.002 C 
ATOM     20  N   ASN A   6     -34.130   9.389   0.943  1.00  0.00    -0.087 N 
ATOM     21  CA  ASN A   6     -34.226   9.153   2.381  1.00  0.00    +0.174 C 
ATOM     22  C   ASN A   6     -34.371   7.673   2.694  1.00  0.00    +0.150 C 
ATOM     23  O   ASN A   6     -33.788   7.178   3.657  1.00  0.00    -0.285 OA
ATOM     24  N   ALA A   7     -35.150   6.965   1.879  1.00  0.00    +0.464 N 
ATOM     25  CA  ALA A   7     -36.560   6.744   2.178  1.00  0.00    +0.072 C 
ATOM     26  C   ALA A   7     -36.729   5.813   3.367  1.00  0.00    +0.227 C 
ATOM     27  O   ALA A   7     -37.781   5.797   4.003  1.00  0.00    -0.275 OA
ATOM     28  CB  ALA A   7     -37.284   6.163   0.973  1.00  0.00    -0.008 C 
ATOM     29  N   LEU A   8     -35.691   5.037   3.669  1.00  0.00    -0.205 N 
ATOM     30  CA  LEU A   8     -35.263   4.842   5.051  1.00  0.00    +0.142 C 
ATOM     31  C   LEU A   8     -34.204   5.862   5.438  1.00  0.00    +0.247 C 
ATOM     32  O   LEU A   8     -34.314   6.512   6.476  1.00  0.00    -0.203 OA
ATOM     33  CB  LEU A   8     -34.716   3.439   5.252  1.00  0.00    +0.026 C 
ATOM     34  CG  LEU A   8     -35.749   2.312   5.294  1.00  0.00    +0.002 C 
ATOM     35  CD1 LEU A   8     -35.453   1.366   6.451  1.00  0.00    +0.000 C 
ATOM     36  CD2 LEU A   8     -35.531   1.341   4.138  1.00  0.00    +0.000 C 
ATOM     37  N   LEU A   9     -33.180   6.002   4.602  1.00  0.00    -0.167 NA
ATOM     38  CA  LEU A   9     -31.799   5.915   5.070  1.00  0.00    +0.094 C 
ATOM     39  C   LEU A   9     -31.405   7.168   5.835  1.00  0.00    +0.143 C 
ATOM     40  CB  LEU A   9     -30.847   5.711   3.903  1.00  0.00    +0.019 C 
ATOM     41  CG  LEU A   9     -30.532   4.259   3.536  1.00  0.00    +0.001 C 
ATOM     42  CD1 LEU A   9     -29.150   4.163   2.902  1.00  0.00    +0.000 C 
ATOM     43  CD2 LEU A   9     -31.368   3.817   2.339  1.00  0.00    +0.002 C 
ATOM     44  N   VAL A  10     -32.119   8.263   5.593  1.00  0.00    -0.204 NA
ATOM     45  CA  VAL A  10     -31.499   9.475   5.066  1.00  0.00    +0.092 C 
ATOM     46  CB  VAL A  10     -32.441  10.245   4.156  1.00  0.00    +0.043 C 
ATOM     47  CG1 VAL A  10     -31.655  11.087   3.153  1.00  0.00    +0.004 C 
ATOM     48  CG2 VAL A  10     -33.327   9.283   3.370  1.00  0.00    +0.117 C 
ATOM     49  H   GLN A   3     -32.475   8.539   6.820  1.00  0.00    +0.000 HD
ATOM     50  H   VAL A   5     -33.971   5.923  -0.120  1.00  0.00    +0.000 HD
ATOM     51  H   ASN A   6     -34.217  10.290   1.332  1.00  0.00    +0.000 HD
ATOM     52  H   ASN A   6     -34.851   8.730   1.061  1.00  0.00    +0.000 HD
ATOM     53  H   LEU A   8     -35.202   4.584   2.944  1.00  0.00    +0.000 HD
ATOM      1  CG  GLN A   3     -32.786  11.177   6.596  1.00  0.00    +0.089 C 
ATOM      2  CD  GLN A   3     -31.359  11.212   7.116  1.00  0.00    +0.107 C 
ATOM      3  N   PHE A  11     -31.961  10.604   7.164  1.00  0.00    -0.217 NA
ATOM      4  CA  PHE A  11     -32.615  11.903   7.287  1.00  0.00    +0.023 C 
ATOM      5  CB  PHE A  11     -33.922  11.783   8.055  1.00  0.00    +0.028 C 
ATOM      6  CG  PHE A  11     -35.023  11.127   7.277  1.00  0.00    -0.022 A 
ATOM      7  CD1 PHE A  11     -34.752  10.539   6.045  1.00  0.00    -0.004 A 
ATOM      8  CE1 PHE A  11     -35.771   9.932   5.325  1.00  0.00    -0.000 A 
ATOM      9  CD2 PHE A  11     -36.316  11.105   7.786  1.00  0.00    -0.004 A 
ATOM     10  CE2 PHE A  11     -37.338  10.497   7.064  1.00  0.00    -0.000 A 
ATOM     11  CZ  PHE A  11     -37.065   9.910   5.835  1.00  0.00    -0.000 A 
ATOM     12  H   PHE A  11     -32.225  10.392   8.127  1.00  0.00    +0.000 HD
ATOM      1  CB  ASN A   6     -35.395   9.916   2.981  1.00  0.00    +0.098 C 
ATOM      2  CG  ASN A   6     -35.225  11.422   2.876  1.00  0.00    +0.261 C 
ATOM      3  OD1 ASN A   6     -34.224  11.979   3.325  1.00  0.00    -0.272 OA
ATOM      4  ND2 ASN A   6     -36.210  12.090   2.278  1.00  0.00    -0.088 N 
ATOM      5  H   ASN A   6     -36.153  13.068   2.182  1.00  0.00    +0.000 HD
ATOM      6  H   ASN A   6     -36.994  11.605   1.933  1.00  0.00    +0.000 HD
ENDROOT
TORSDOF 0
