REMARK  Name = /var/folders/yp/yjbh3p597675h2qddgqr02y00000gn/T/tmpoxbbzwg1.pdb
REMARK     285 UNITARY VALUES FOR THE UNIT CELL AUTOMATICALLY SET
REMARK     285 BY MDANALYSIS PDBWRITER BECAUSE UNIT CELL INFORMATION
REMARK     285 WAS MISSING.
REMARK     285 PROTEIN DATA BANK CONVENTIONS REQUIRE THAT
REMARK     285 CRYST1 RECORD IS INCLUDED, BUT THE VALUES ON
REMARK     285 THIS RECORD ARE MEANINGLESS.
REMARK     285 UNITARY VALUES FOR THE UNIT CELL AUTOMATICALLY SET
REMARK     285 BY MDANALYSIS PDBWRITER BECAUSE UNIT CELL INFORMATION
REMARK     285 WAS MISSING.
REMARK     285 PROTEIN DATA BANK CONVENTIONS REQUIRE THAT
REMARK     285 CRYST1 RECORD IS INCLUDED, BUT THE VALUES ON
REMARK     285 THIS RECORD ARE MEANINGLESS.
REMARK                            x       y       z     vdW  Elec       q    Type
REMARK                         _______ _______ _______ _____ _____    ______ ____
ROOT
ATOM      1  N   MET A   1      26.461 -14.246  14.123  1.00  0.00    -0.123 NA
ATOM      2  CA  MET A   1      25.574 -15.240  13.525  1.00  0.00    +0.170 C 
ATOM      3  C   MET A   1      26.197 -16.625  13.577  1.00  0.00    +0.259 C 
ATOM      4  O   MET A   1      27.237 -16.866  12.965  1.00  0.00    -0.272 OA
ATOM      5  CB  MET A   1      25.253 -14.882  12.083  1.00  0.00    +0.040 C 
ATOM      6  CG  MET A   1      24.079 -15.659  11.507  1.00  0.00    +0.060 C 
ATOM      7  SD  MET A   1      23.442 -14.930   9.978  1.00  0.00    -0.139 S 
ATOM      8  CE  MET A   1      21.683 -15.164  10.211  1.00  0.00    +0.069 C 
ATOM      9  N   LYS A   2      25.563 -17.537  14.307  1.00  0.00    -0.197 N 
ATOM     10  CA  LYS A   2      25.280 -18.870  13.781  1.00  0.00    +0.173 C 
ATOM     11  C   LYS A   2      24.182 -18.823  12.731  1.00  0.00    +0.262 C 
ATOM     12  O   LYS A   2      24.295 -19.455  11.681  1.00  0.00    -0.271 OA
ATOM     13  CB  LYS A   2      24.873 -19.818  14.899  1.00  0.00    +0.031 C 
ATOM     14  CG  LYS A   2      26.042 -20.531  15.555  1.00  0.00    +0.009 C 
ATOM     15  CD  LYS A   2      25.585 -21.463  16.665  1.00  0.00    +0.049 C 
ATOM     16  CE  LYS A   2      26.715 -22.053  17.375  1.00  0.00    +0.096 C 
ATOM     17  NZ  LYS A   2      26.867 -22.048  18.696  1.00  0.00    -0.151 NA
ATOM     18  N   GLN A   3      23.120 -18.075  13.012  1.00  0.00    -0.196 N 
ATOM     19  CA  GLN A   3      22.627 -17.939  14.381  1.00  0.00    +0.173 C 
ATOM     20  C   GLN A   3      21.923 -19.208  14.835  1.00  0.00    +0.262 C 
ATOM     21  O   GLN A   3      21.849 -19.486  16.031  1.00  0.00    -0.271 OA
ATOM     22  CB  GLN A   3      21.674 -16.760  14.498  1.00  0.00    +0.041 C 
ATOM     23  CG  GLN A   3      22.357 -15.407  14.374  1.00  0.00    +0.091 C 
ATOM     24  CD  GLN A   3      21.436 -14.333  13.819  1.00  0.00    +0.261 C 
ATOM     25  OE1 GLN A   3      21.573 -13.915  12.660  1.00  0.00    -0.272 OA
ATOM     26  NE2 GLN A   3      20.492 -13.879  14.637  1.00  0.00    -0.088 N 
ATOM     27  N   ALA A   4      21.406 -19.978  13.883  1.00  0.00    -0.196 N 
ATOM     28  CA  ALA A   4      20.008 -20.396  13.917  1.00  0.00    +0.173 C 
ATOM     29  C   ALA A   4      19.690 -21.130  15.211  1.00  0.00    +0.262 C 
ATOM     30  O   ALA A   4      20.540 -21.829  15.759  1.00  0.00    -0.271 OA
ATOM     31  CB  ALA A   4      19.682 -21.291  12.732  1.00  0.00    +0.033 C 
ATOM     32  N   VAL A   5      18.463 -20.970  15.700  1.00  0.00    -0.196 N 
ATOM     33  CA  VAL A   5      17.749 -22.073  16.335  1.00  0.00    +0.173 C 
ATOM     34  C   VAL A   5      17.343 -23.097  15.287  1.00  0.00    +0.262 C 
ATOM     35  O   VAL A   5      16.803 -22.738  14.242  1.00  0.00    -0.271 OA
ATOM     36  CB  VAL A   5      16.515 -21.595  17.083  1.00  0.00    +0.029 C 
ATOM     37  CG1 VAL A   5      16.789 -21.509  18.582  1.00  0.00    +0.004 C 
ATOM     38  CG2 VAL A   5      16.104 -20.206  16.599  1.00  0.00    +0.002 C 
ATOM     39  N   ASN A   6      17.602 -24.371  15.567  1.00  0.00    -0.196 N 
ATOM     40  CA  ASN A   6      16.527 -25.343  15.748  1.00  0.00    +0.182 C 
ATOM     41  C   ASN A   6      15.846 -25.175  17.097  1.00  0.00    +0.262 C 
ATOM     42  O   ASN A   6      15.008 -25.990  17.478  1.00  0.00    -0.271 OA
ATOM     43  CB  ASN A   6      17.050 -26.763  15.616  1.00  0.00    +0.120 C 
ATOM     44  CG  ASN A   6      16.397 -27.524  14.475  1.00  0.00    +0.263 C 
ATOM     45  OD1 ASN A   6      15.284 -27.204  14.059  1.00  0.00    -0.272 OA
ATOM     46  ND2 ASN A   6      17.090 -28.537  13.963  1.00  0.00    -0.088 N 
ATOM     47  N   ALA A   7      16.204 -24.117  17.818  1.00  0.00    -0.196 N 
ATOM     48  CA  ALA A   7      15.909 -24.035  19.247  1.00  0.00    +0.173 C 
ATOM     49  C   ALA A   7      14.414 -23.916  19.488  1.00  0.00    +0.262 C 
ATOM     50  O   ALA A   7      13.971 -23.839  20.634  1.00  0.00    -0.271 OA
ATOM     51  CB  ALA A   7      16.622 -22.849  19.877  1.00  0.00    +0.031 C 
ATOM     52  N   LEU A   8      13.634 -23.896  18.412  1.00  0.00    -0.196 N 
ATOM     53  CA  LEU A   8      12.356 -24.602  18.385  1.00  0.00    +0.173 C 
ATOM     54  C   LEU A   8      12.558 -26.072  18.053  1.00  0.00    +0.262 C 
ATOM     55  O   LEU A   8      13.151 -26.406  17.029  1.00  0.00    -0.271 OA
ATOM     56  CB  LEU A   8      11.416 -23.977  17.368  1.00  0.00    +0.031 C 
ATOM     57  CG  LEU A   8      11.087 -22.498  17.576  1.00  0.00    +0.002 C 
ATOM     58  CD1 LEU A   8       9.932 -22.081  16.674  1.00  0.00    +0.000 C 
ATOM     59  CD2 LEU A   8      12.179 -21.616  16.980  1.00  0.00    +0.000 C 
ATOM     60  N   LEU A   9      12.062 -26.952  18.920  1.00  0.00    -0.196 N 
ATOM     61  CA  LEU A   9      10.743 -27.548  18.727  1.00  0.00    +0.173 C 
ATOM     62  C   LEU A   9       9.801 -27.155  19.855  1.00  0.00    +0.262 C 
ATOM     63  O   LEU A   9      10.037 -27.497  21.012  1.00  0.00    -0.271 OA
ATOM     64  CB  LEU A   9      10.843 -29.063  18.654  1.00  0.00    +0.031 C 
ATOM     65  CG  LEU A   9      11.622 -29.629  17.466  1.00  0.00    +0.002 C 
ATOM     66  CD1 LEU A   9      11.768 -28.571  16.379  1.00  0.00    +0.000 C 
ATOM     67  CD2 LEU A   9      10.771 -30.635  16.696  1.00  0.00    +0.000 C 
ATOM     68  N   VAL A  10       8.733 -26.438  19.517  1.00  0.00    -0.196 N 
ATOM     69  CA  VAL A  10       7.547 -26.398  20.365  1.00  0.00    +0.173 C 
ATOM     70  C   VAL A  10       6.679 -27.615  20.092  1.00  0.00    +0.262 C 
ATOM     71  O   VAL A  10       5.989 -28.105  20.985  1.00  0.00    -0.271 OA
ATOM     72  CB  VAL A  10       6.733 -25.132  20.142  1.00  0.00    +0.029 C 
ATOM     73  CG1 VAL A  10       6.025 -24.713  21.428  1.00  0.00    +0.002 C 
ATOM     74  CG2 VAL A  10       7.642 -23.986  19.709  1.00  0.00    +0.002 C 
ATOM     75  N   PHE A  11       6.709 -28.104  18.855  1.00  0.00    -0.196 N 
ATOM     76  CA  PHE A  11       5.488 -28.257  18.068  1.00  0.00    +0.177 C 
ATOM     77  C   PHE A  11       5.092 -29.722  17.970  1.00  0.00    +0.262 C 
ATOM     78  O   PHE A  11       3.909 -30.053  18.027  1.00  0.00    -0.271 OA
ATOM     79  CB  PHE A  11       5.671 -27.687  16.670  1.00  0.00    +0.057 C 
ATOM     80  CG  PHE A  11       5.363 -28.662  15.573  1.00  0.00    -0.020 A 
ATOM     81  CD1 PHE A  11       4.064 -29.130  15.402  1.00  0.00    -0.004 A 
ATOM     82  CE1 PHE A  11       3.780 -30.033  14.385  1.00  0.00    -0.000 A 
ATOM     83  CD2 PHE A  11       6.375 -29.097  14.726  1.00  0.00    -0.004 A 
ATOM     84  CE2 PHE A  11       6.089 -30.000  13.708  1.00  0.00    -0.000 A 
ATOM     85  CZ  PHE A  11       4.792 -30.469  13.538  1.00  0.00    -0.000 A 
ATOM     86  N   PHE A  12       6.080 -30.599  17.821  1.00  0.00    -0.196 N 
ATOM     87  CA  PHE A  12       5.826 -31.959  17.355  1.00  0.00    +0.177 C 
ATOM     88  C   PHE A  12       5.430 -32.859  18.512  1.00  0.00    +0.262 C 
ATOM     89  O   PHE A  12       5.320 -32.404  19.649  1.00  0.00    -0.271 OA
ATOM     90  CB  PHE A  12       7.051 -32.532  16.661  1.00  0.00    +0.057 C 
ATOM     91  CG  PHE A  12       7.431 -31.808  15.403  1.00  0.00    -0.020 A 
ATOM     92  CD1 PHE A  12       6.543 -30.910  14.823  1.00  0.00    -0.004 A 
ATOM     93  CE1 PHE A  12       6.895 -30.241  13.657  1.00  0.00    -0.000 A 
ATOM     94  CD2 PHE A  12       8.671 -32.039  14.818  1.00  0.00    -0.004 A 
ATOM     95  CE2 PHE A  12       9.022 -31.368  13.652  1.00  0.00    -0.000 A 
ATOM     96  CZ  PHE A  12       8.136 -30.470  13.071  1.00  0.00    -0.000 A 
ATOM     97  N   ALA A  13       5.214 -34.141  18.224  1.00  0.00    -0.196 N 
ATOM     98  CA  ALA A  13       5.183 -35.161  19.268  1.00  0.00    +0.173 C 
ATOM     99  C   ALA A  13       6.541 -35.301  19.935  1.00  0.00    +0.262 C 
ATOM    100  O   ALA A  13       6.625 -35.554  21.136  1.00  0.00    -0.271 OA
ATOM    101  CB  ALA A  13       4.756 -36.503  18.698  1.00  0.00    +0.033 C 
ATOM    102  N   GLY A  14       7.608 -35.140  19.157  1.00  0.00    -0.194 N 
ATOM    103  CA  GLY A  14       7.547 -35.397  17.721  1.00  0.00    +0.201 C 
ATOM    104  C   GLY A  14       8.925 -35.723  17.170  1.00  0.00    +0.264 C 
ATOM    105  O   GLY A  14       9.930 -35.536  17.853  1.00  0.00    -0.271 OA
ATOM    106  N   SER A  15       8.973 -36.212  15.933  1.00  0.00    -0.194 N 
ATOM    107  CA  SER A  15      10.239 -36.357  15.222  1.00  0.00    +0.205 C 
ATOM    108  C   SER A  15      10.759 -35.011  14.744  1.00  0.00    +0.264 C 
ATOM    109  O   SER A  15       9.978 -34.121  14.410  1.00  0.00    -0.271 OA
ATOM    110  CB  SER A  15      10.083 -37.291  14.033  1.00  0.00    +0.213 C 
ATOM    111  OG  SER A  15       9.101 -36.801  13.134  1.00  0.00    -0.218 OA
ATOM    112  N   SER A  16      12.081 -34.860  14.710  1.00  0.00    -0.194 N 
ATOM    113  CA  SER A  16      12.740 -33.770  15.424  1.00  0.00    +0.205 C 
ATOM    114  C   SER A  16      13.701 -33.018  14.518  1.00  0.00    +0.264 C 
ATOM    115  O   SER A  16      14.448 -33.630  13.756  1.00  0.00    -0.271 OA
ATOM    116  CB  SER A  16      13.492 -34.299  16.634  1.00  0.00    +0.213 C 
ATOM    117  OG  SER A  16      14.373 -35.344  16.260  1.00  0.00    -0.218 OA
ATOM    118  N   ASP A  17      13.682 -31.691  14.600  1.00  0.00    -0.196 N 
ATOM    119  CA  ASP A  17      14.846 -30.943  15.068  1.00  0.00    +0.184 C 
ATOM    120  C   ASP A  17      14.751 -30.662  16.559  1.00  0.00    +0.262 C 
ATOM    121  O   ASP A  17      13.671 -30.745  17.143  1.00  0.00    -0.271 OA
ATOM    122  CB  ASP A  17      14.987 -29.630  14.313  1.00  0.00    +0.145 C 
ATOM    123  CG  ASP A  17      14.564 -29.733  12.857  1.00  0.00    +0.367 C 
ATOM    124  OD1 ASP A  17      13.391 -29.435  12.541  1.00  0.00    -0.246 OA
ATOM    125  OD2 ASP A  17      15.410 -30.118  12.021  1.00  0.00    -0.246 OA
ATOM    126  N   ALA A  18      15.881 -30.331  17.178  1.00  0.00    -0.196 N 
ATOM    127  CA  ALA A  18      16.209 -30.861  18.497  1.00  0.00    +0.173 C 
ATOM    128  C   ALA A  18      16.813 -29.784  19.384  1.00  0.00    +0.262 C 
ATOM    129  O   ALA A  18      17.709 -29.056  18.961  1.00  0.00    -0.271 OA
ATOM    130  CB  ALA A  18      17.178 -32.028  18.386  1.00  0.00    +0.033 C 
ATOM    131  N   ILE A  19      16.321 -29.681  20.616  1.00  0.00    -0.196 N 
ATOM    132  CA  ILE A  19      17.179 -29.358  21.752  1.00  0.00    +0.173 C 
ATOM    133  C   ILE A  19      17.244 -30.544  22.699  1.00  0.00    +0.262 C 
ATOM    134  O   ILE A  19      16.338 -30.752  23.505  1.00  0.00    -0.271 OA
ATOM    135  CB  ILE A  19      16.686 -28.134  22.506  1.00  0.00    +0.029 C 
ATOM    136  CG1 ILE A  19      15.889 -27.216  21.580  1.00  0.00    +0.002 C 
ATOM    137  CG2 ILE A  19      17.863 -27.361  23.095  1.00  0.00    +0.002 C 
ATOM    138  CD1 ILE A  19      15.519 -25.880  22.204  1.00  0.00    +0.000 C 
ATOM    139  N   ARG A  20      18.318 -31.324  22.604  1.00  0.00    -0.196 N 
ATOM    140  CA  ARG A  20      18.736 -32.180  23.711  1.00  0.00    +0.173 C 
ATOM    141  C   ARG A  20      19.541 -31.394  24.733  1.00  0.00    +0.262 C 
ATOM    142  O   ARG A  20      19.181 -31.342  25.907  1.00  0.00    -0.271 OA
ATOM    143  CB  ARG A  20      19.562 -33.352  23.208  1.00  0.00    +0.034 C 
ATOM    144  CG  ARG A  20      20.503 -32.996  22.068  1.00  0.00    +0.039 C 
ATOM    145  CD  ARG A  20      21.809 -33.771  22.153  1.00  0.00    +0.140 C 
ATOM    146  NE  ARG A  20      22.307 -33.838  23.523  1.00  0.00    -0.228 NA
ATOM    147  CZ  ARG A  20      23.409 -33.235  23.959  1.00  0.00    +0.192 C 
ATOM    148  NH1 ARG A  20      24.012 -32.306  23.222  1.00  0.00    -0.229 NA
ATOM    149  NH2 ARG A  20      23.913 -33.564  25.146  1.00  0.00    -0.099 NA
ATOM    150  N   ARG A  21      20.635 -30.781  24.287  1.00  0.00    -0.193 N 
ATOM    151  CA  ARG A  21      21.953 -31.082  24.838  1.00  0.00    +0.214 C 
ATOM    152  C   ARG A  21      22.491 -29.905  25.635  1.00  0.00    +0.386 C 
ATOM    153  O   ARG A  21      23.492 -30.032  26.338  1.00  0.00    -0.244 OA
ATOM    154  CB  ARG A  21      22.933 -31.438  23.733  1.00  0.00    +0.113 C 
ATOM    155  CG  ARG A  21      22.548 -32.682  22.948  1.00  0.00    +0.137 C 
ATOM    156  CD  ARG A  21      23.762 -33.349  22.317  1.00  0.00    +0.159 C 
ATOM    157  NE  ARG A  21      23.420 -34.641  21.729  1.00  0.00    -0.251 N 
ATOM    158  CZ  ARG A  21      24.080 -35.774  21.952  1.00  0.00    +0.260 C 
ATOM    159  NH1 ARG A  21      25.102 -35.806  22.803  1.00  0.00    -0.108 N 
ATOM    160  NH2 ARG A  21      23.714 -36.883  21.318  1.00  0.00    -0.108 NA
ATOM    161  OXT ARG A  21      21.934 -28.809  25.586  1.00  0.00    -0.244 OA
ATOM    162  H   MET A   1      26.021 -13.327  14.077  1.00  0.00    +0.000 HD
ATOM    163  H   MET A   1      27.343 -14.227  13.613  1.00  0.00    +0.000 HD
ATOM    164  H   LYS A   2      25.278 -17.310  15.221  1.00  0.00    +0.000 HD
ATOM    165  H   LYS A   2      26.188 -21.624  19.269  1.00  0.00    +0.000 HD
ATOM    166  H   GLN A   3      22.655 -17.603  12.284  1.00  0.00    +0.000 HD
ATOM    167  H   GLN A   3      19.867 -13.182  14.330  1.00  0.00    +0.000 HD
ATOM    168  H   GLN A   3      20.417 -14.239  15.551  1.00  0.00    +0.000 HD
ATOM    169  H   ALA A   4      21.978 -20.272  13.138  1.00  0.00    +0.000 HD
ATOM    170  H   VAL A   5      18.027 -20.089  15.631  1.00  0.00    +0.000 HD
ATOM    171  H   ASN A   6      18.537 -24.665  15.653  1.00  0.00    +0.000 HD
ATOM    172  H   ASN A   6      16.715 -29.065  13.221  1.00  0.00    +0.000 HD
ATOM    173  H   ASN A   6      17.978 -28.758  14.326  1.00  0.00    +0.000 HD
ATOM    174  H   ALA A   7      16.679 -23.373  17.381  1.00  0.00    +0.000 HD
ATOM    175  H   LEU A   8      13.925 -23.396  17.616  1.00  0.00    +0.000 HD
ATOM    176  H   LEU A   9      12.596 -27.205  19.707  1.00  0.00    +0.000 HD
ATOM    177  H   VAL A  10       8.745 -25.923  18.678  1.00  0.00    +0.000 HD
ATOM    178  H   PHE A  11       7.572 -28.369  18.463  1.00  0.00    +0.000 HD
ATOM    179  H   PHE A  12       7.002 -30.326  18.030  1.00  0.00    +0.000 HD
ATOM    180  H   ALA A  13       5.071 -34.406  17.286  1.00  0.00    +0.000 HD
ATOM    181  H   GLY A  14       8.456 -34.843  19.557  1.00  0.00    +0.000 HD
ATOM    182  H   SER A  15       8.137 -36.482  15.489  1.00  0.00    +0.000 HD
ATOM    183  H   SER A  15       9.371 -35.930  12.804  1.00  0.00    +0.000 HD
ATOM    184  H   SER A  16      12.625 -35.496  14.192  1.00  0.00    +0.000 HD
ATOM    185  H   SER A  16      13.863 -36.074  15.875  1.00  0.00    +0.000 HD
ATOM    186  H   ASP A  17      12.868 -31.203  14.341  1.00  0.00    +0.000 HD
ATOM    187  H   ASP A  17      12.787 -29.151  13.198  1.00  0.00    +0.000 HD
ATOM    188  H   ALA A  18      16.510 -29.715  16.736  1.00  0.00    +0.000 HD
ATOM    189  H   ILE A  19      15.359 -29.825  20.764  1.00  0.00    +0.000 HD
ATOM    190  H   ARG A  20      18.842 -31.324  21.771  1.00  0.00    +0.000 HD
ATOM    191  H   ARG A  20      24.751 -33.012  25.325  1.00  0.00    +0.000 HD
ATOM    192  H   ARG A  20      24.151 -34.556  25.151  1.00  0.00    +0.000 HD
ATOM    193  H   ARG A  21      20.553 -30.110  23.572  1.00  0.00    +0.000 HD
ATOM    194  H   ARG A  21      23.929 -30.860  26.387  1.00  0.00    +0.000 HD
ATOM    195  H   ARG A  21      25.585 -36.650  22.961  1.00  0.00    +0.000 HD
ATOM    196  H   ARG A  21      25.377 -34.987  23.275  1.00  0.00    +0.000 HD
ATOM    197  H   ARG A  21      22.958 -36.863  20.687  1.00  0.00    +0.000 HD
ENDROOT
TORSDOF 0
