REMARK  Name = /var/folders/yp/yjbh3p597675h2qddgqr02y00000gn/T/tmpdrbaqt58.pdb
REMARK     285 UNITARY VALUES FOR THE UNIT CELL AUTOMATICALLY SET
REMARK     285 BY MDANALYSIS PDBWRITER BECAUSE UNIT CELL INFORMATION
REMARK     285 WAS MISSING.
REMARK     285 PROTEIN DATA BANK CONVENTIONS REQUIRE THAT
REMARK     285 CRYST1 RECORD IS INCLUDED, BUT THE VALUES ON
REMARK     285 THIS RECORD ARE MEANINGLESS.
REMARK     285 UNITARY VALUES FOR THE UNIT CELL AUTOMATICALLY SET
REMARK     285 BY MDANALYSIS PDBWRITER BECAUSE UNIT CELL INFORMATION
REMARK     285 WAS MISSING.
REMARK     285 PROTEIN DATA BANK CONVENTIONS REQUIRE THAT
REMARK     285 CRYST1 RECORD IS INCLUDED, BUT THE VALUES ON
REMARK     285 THIS RECORD ARE MEANINGLESS.
REMARK                            x       y       z     vdW  Elec       q    Type
REMARK                         _______ _______ _______ _____ _____    ______ ____
REMARK  Name = /var/folders/yp/yjbh3p597675h2qddgqr02y00000gn/T/tmpdrbaqt58.pdb
REMARK     285 UNITARY VALUES FOR THE UNIT CELL AUTOMATICALLY SET
REMARK     285 BY MDANALYSIS PDBWRITER BECAUSE UNIT CELL INFORMATION
REMARK     285 WAS MISSING.
REMARK     285 PROTEIN DATA BANK CONVENTIONS REQUIRE THAT
REMARK     285 CRYST1 RECORD IS INCLUDED, BUT THE VALUES ON
REMARK     285 THIS RECORD ARE MEANINGLESS.
REMARK     285 UNITARY VALUES FOR THE UNIT CELL AUTOMATICALLY SET
REMARK     285 BY MDANALYSIS PDBWRITER BECAUSE UNIT CELL INFORMATION
REMARK     285 WAS MISSING.
REMARK     285 PROTEIN DATA BANK CONVENTIONS REQUIRE THAT
REMARK     285 CRYST1 RECORD IS INCLUDED, BUT THE VALUES ON
REMARK     285 THIS RECORD ARE MEANINGLESS.
REMARK                            x       y       z     vdW  Elec       q    Type
REMARK                         _______ _______ _______ _____ _____    ______ ____
ROOT
ATOM      1  N   MET A   1     -20.639   4.229   3.874  1.00  0.00    -0.124 NA
ATOM      2  CA  MET A   1     -21.705   4.760   3.029  1.00  0.00    +0.157 C 
ATOM      3  C   MET A   1     -22.979   4.976   3.831  1.00  0.00    +0.258 C 
ATOM      4  O   MET A   1     -23.241   4.256   4.792  1.00  0.00    -0.272 OA
ATOM      5  CB  MET A   1     -21.991   3.825   1.865  1.00  0.00    +0.039 C 
ATOM      6  CG  MET A   1     -21.130   4.094   0.641  1.00  0.00    +0.060 C 
ATOM      7  SD  MET A   1     -19.695   5.135   1.011  1.00  0.00    -0.138 S 
ATOM      8  CE  MET A   1     -20.149   5.758   2.626  1.00  0.00    +0.084 C 
ATOM      9  N   LYS A   2     -23.771   5.968   3.436  1.00  0.00    -0.197 N 
ATOM     10  CA  LYS A   2     -25.215   5.786   3.319  1.00  0.00    +0.173 C 
ATOM     11  C   LYS A   2     -25.553   4.786   2.226  1.00  0.00    +0.262 C 
ATOM     12  O   LYS A   2     -26.092   3.715   2.506  1.00  0.00    -0.271 OA
ATOM     13  CB  LYS A   2     -25.906   7.109   3.028  1.00  0.00    +0.031 C 
ATOM     14  CG  LYS A   2     -26.550   7.747   4.248  1.00  0.00    +0.009 C 
ATOM     15  CD  LYS A   2     -25.934   9.098   4.571  1.00  0.00    +0.049 C 
ATOM     16  CE  LYS A   2     -26.522  10.166   3.766  1.00  0.00    +0.096 C 
ATOM     17  NZ  LYS A   2     -27.793  10.549   3.828  1.00  0.00    -0.151 NA
ATOM     18  N   GLN A   3     -25.239   5.132   0.982  1.00  0.00    -0.196 N 
ATOM     19  CA  GLN A   3     -24.447   6.326   0.702  1.00  0.00    +0.173 C 
ATOM     20  C   GLN A   3     -25.329   7.474   0.243  1.00  0.00    +0.262 C 
ATOM     21  O   GLN A   3     -24.848   8.588   0.037  1.00  0.00    -0.271 OA
ATOM     22  CB  GLN A   3     -23.393   6.041  -0.356  1.00  0.00    +0.041 C 
ATOM     23  CG  GLN A   3     -23.955   5.924  -1.764  1.00  0.00    +0.091 C 
ATOM     24  CD  GLN A   3     -24.718   7.164  -2.197  1.00  0.00    +0.261 C 
ATOM     25  OE1 GLN A   3     -25.795   7.467  -1.664  1.00  0.00    -0.272 OA
ATOM     26  NE2 GLN A   3     -24.170   7.891  -3.168  1.00  0.00    -0.088 N 
ATOM     27  N   ALA A   4     -26.620   7.205   0.079  1.00  0.00    -0.196 N 
ATOM     28  CA  ALA A   4     -27.510   7.021   1.223  1.00  0.00    +0.173 C 
ATOM     29  C   ALA A   4     -28.348   5.763   1.065  1.00  0.00    +0.262 C 
ATOM     30  O   ALA A   4     -28.373   5.157  -0.005  1.00  0.00    -0.271 OA
ATOM     31  CB  ALA A   4     -28.425   8.222   1.395  1.00  0.00    +0.033 C 
ATOM     32  N   VAL A   5     -29.038   5.368   2.132  1.00  0.00    -0.196 N 
ATOM     33  CA  VAL A   5     -30.330   4.701   1.997  1.00  0.00    +0.173 C 
ATOM     34  C   VAL A   5     -31.415   5.732   1.732  1.00  0.00    +0.262 C 
ATOM     35  O   VAL A   5     -31.566   6.688   2.492  1.00  0.00    -0.271 OA
ATOM     36  CB  VAL A   5     -30.686   3.898   3.238  1.00  0.00    +0.029 C 
ATOM     37  CG1 VAL A   5     -29.547   2.953   3.614  1.00  0.00    +0.002 C 
ATOM     38  CG2 VAL A   5     -30.936   4.831   4.422  1.00  0.00    +0.002 C 
ATOM     39  N   ASN A   6     -32.171   5.540   0.655  1.00  0.00    -0.196 N 
ATOM     40  CA  ASN A   6     -33.598   5.846   0.662  1.00  0.00    +0.182 C 
ATOM     41  C   ASN A   6     -34.350   4.974   1.654  1.00  0.00    +0.262 C 
ATOM     42  O   ASN A   6     -35.341   5.406   2.240  1.00  0.00    -0.271 OA
ATOM     43  CB  ASN A   6     -34.199   5.673  -0.723  1.00  0.00    +0.120 C 
ATOM     44  CG  ASN A   6     -35.546   6.361  -0.865  1.00  0.00    +0.263 C 
ATOM     45  OD1 ASN A   6     -36.216   6.650   0.125  1.00  0.00    -0.272 OA
ATOM     46  ND2 ASN A   6     -35.950   6.626  -2.106  1.00  0.00    -0.088 N 
ATOM     47  N   ALA A   7     -33.879   3.744   1.843  1.00  0.00    -0.196 N 
ATOM     48  CA  ALA A   7     -34.769   2.590   1.905  1.00  0.00    +0.173 C 
ATOM     49  C   ALA A   7     -35.688   2.671   3.114  1.00  0.00    +0.261 C 
ATOM     50  O   ALA A   7     -36.688   1.959   3.186  1.00  0.00    -0.271 OA
ATOM     51  CB  ALA A   7     -33.972   1.295   1.961  1.00  0.00    +0.033 C 
ATOM     52  N   LEU A   8     -35.349   3.540   4.063  1.00  0.00    -0.204 N 
ATOM     53  CA  LEU A   8     -35.608   3.264   5.474  1.00  0.00    +0.115 C 
ATOM     54  CB  LEU A   8     -34.950   4.312   6.356  1.00  0.00    +0.023 C 
ATOM     55  CG  LEU A   8     -33.450   4.142   6.600  1.00  0.00    +0.002 C 
ATOM     56  CD1 LEU A   8     -33.210   3.255   7.816  1.00  0.00    +0.000 C 
ATOM     57  CD2 LEU A   8     -32.843   5.435   7.133  1.00  0.00    +0.000 C 
ATOM     58  H   MET A   1     -21.008   3.472   4.450  1.00  0.00    +0.000 HD
ATOM     59  H   MET A   1     -20.281   4.970   4.476  1.00  0.00    +0.000 HD
ATOM     60  H   LYS A   2     -23.376   6.843   3.217  1.00  0.00    +0.000 HD
ATOM     61  H   LYS A   2     -28.412  10.102   4.449  1.00  0.00    +0.000 HD
ATOM     62  H   GLN A   3     -25.548   4.572   0.234  1.00  0.00    +0.000 HD
ATOM     63  H   GLN A   3     -23.312   7.615  -3.564  1.00  0.00    +0.000 HD
ATOM     64  H   GLN A   3     -24.621   8.704  -3.490  1.00  0.00    +0.000 HD
ATOM     65  H   ALA A   4     -26.985   7.130  -0.832  1.00  0.00    +0.000 HD
ATOM     66  H   VAL A   5     -28.670   5.529   3.031  1.00  0.00    +0.000 HD
ATOM     67  H   ASN A   6     -31.759   5.182  -0.165  1.00  0.00    +0.000 HD
ATOM     68  H   ASN A   6     -36.815   7.070  -2.258  1.00  0.00    +0.000 HD
ATOM     69  H   ASN A   6     -35.383   6.377  -2.871  1.00  0.00    +0.000 HD
ATOM     70  H   ALA A   7     -32.908   3.610   1.944  1.00  0.00    +0.000 HD
ATOM     71  H   LEU A   8     -34.915   4.386   3.810  1.00  0.00    +0.000 HD
ATOM      1  C   LEU A   8     -37.102   3.229   5.752  1.00  0.00    +0.274 C 
ATOM      2  O   LEU A   8     -37.807   4.202   5.490  1.00  0.00    -0.199 OA
ATOM      3  N   LEU A   9     -37.582   2.109   6.284  1.00  0.00    -0.178 NA
ATOM      4  CA  LEU A   9     -38.711   2.131   7.211  1.00  0.00    +0.153 C 
ATOM      5  C   LEU A   9     -38.328   2.814   8.513  1.00  0.00    +0.258 C 
ATOM      6  O   LEU A   9     -37.595   2.249   9.324  1.00  0.00    -0.272 OA
ATOM      7  CB  LEU A   9     -39.195   0.720   7.501  1.00  0.00    +0.027 C 
ATOM      8  CG  LEU A   9     -39.647  -0.099   6.290  1.00  0.00    +0.002 C 
ATOM      9  CD1 LEU A   9     -40.273  -1.412   6.745  1.00  0.00    +0.000 C 
ATOM     10  CD2 LEU A   9     -38.440  -0.664   5.545  1.00  0.00    +0.000 C 
ATOM     11  N   VAL A  10     -38.823   4.031   8.716  1.00  0.00    -0.197 N 
ATOM     12  CA  VAL A  10     -40.185   4.226   9.207  1.00  0.00    +0.173 C 
ATOM     13  C   VAL A  10     -41.174   4.039   8.069  1.00  0.00    +0.261 C 
ATOM     14  O   VAL A  10     -42.106   3.244   8.173  1.00  0.00    -0.271 OA
ATOM     15  CB  VAL A  10     -40.374   5.603   9.822  1.00  0.00    +0.029 C 
ATOM     16  CG1 VAL A  10     -41.474   5.575  10.881  1.00  0.00    +0.002 C 
ATOM     17  CG2 VAL A  10     -39.085   6.067  10.495  1.00  0.00    +0.002 C 
ATOM     18  N   PHE A  11     -40.972   4.774   6.978  1.00  0.00    -0.201 N 
ATOM     19  CA  PHE A  11     -40.027   4.359   5.946  1.00  0.00    +0.147 C 
ATOM     20  C   PHE A  11     -38.694   5.070   6.121  1.00  0.00    +0.246 C 
ATOM     21  O   PHE A  11     -37.660   4.581   5.668  1.00  0.00    -0.202 OA
ATOM     22  CB  PHE A  11     -40.576   4.645   4.559  1.00  0.00    +0.052 C 
ATOM     23  CG  PHE A  11     -41.587   5.752   4.523  1.00  0.00    -0.020 A 
ATOM     24  CD1 PHE A  11     -41.179   7.058   4.281  1.00  0.00    -0.004 A 
ATOM     25  CE1 PHE A  11     -42.115   8.084   4.247  1.00  0.00    -0.000 A 
ATOM     26  CD2 PHE A  11     -42.932   5.471   4.732  1.00  0.00    -0.004 A 
ATOM     27  CE2 PHE A  11     -43.869   6.498   4.699  1.00  0.00    -0.000 A 
ATOM     28  CZ  PHE A  11     -43.461   7.804   4.456  1.00  0.00    -0.000 A 
ATOM     29  N   PHE A  12     -38.716   6.227   6.777  1.00  0.00    -0.179 NA
ATOM     30  CA  PHE A  12     -37.594   7.158   6.714  1.00  0.00    +0.157 C 
ATOM     31  C   PHE A  12     -36.875   7.226   8.052  1.00  0.00    +0.258 C 
ATOM     32  O   PHE A  12     -35.645   7.236   8.099  1.00  0.00    -0.272 OA
ATOM     33  CB  PHE A  12     -38.065   8.550   6.320  1.00  0.00    +0.053 C 
ATOM     34  CG  PHE A  12     -38.790   8.594   5.009  1.00  0.00    -0.020 A 
ATOM     35  CD1 PHE A  12     -38.153   8.175   3.847  1.00  0.00    -0.004 A 
ATOM     36  CE1 PHE A  12     -38.827   8.215   2.631  1.00  0.00    -0.000 A 
ATOM     37  CD2 PHE A  12     -40.101   9.055   4.954  1.00  0.00    -0.004 A 
ATOM     38  CE2 PHE A  12     -40.774   9.096   3.739  1.00  0.00    -0.000 A 
ATOM     39  CZ  PHE A  12     -40.136   8.677   2.576  1.00  0.00    -0.000 A 
ATOM     40  N   ALA A  13     -37.639   7.276   9.139  1.00  0.00    -0.197 N 
ATOM     41  CA  ALA A  13     -37.390   8.246  10.200  1.00  0.00    +0.173 C 
ATOM     42  C   ALA A  13     -36.081   7.950  10.916  1.00  0.00    +0.262 C 
ATOM     43  O   ALA A  13     -35.347   8.867  11.279  1.00  0.00    -0.271 OA
ATOM     44  CB  ALA A  13     -38.529   8.250  11.207  1.00  0.00    +0.033 C 
ATOM     45  N   GLY A  14     -35.789   6.668  11.119  1.00  0.00    -0.194 N 
ATOM     46  CA  GLY A  14     -35.574   6.141  12.464  1.00  0.00    +0.201 C 
ATOM     47  C   GLY A  14     -34.201   6.534  12.986  1.00  0.00    +0.264 C 
ATOM     48  O   GLY A  14     -33.717   7.631  12.706  1.00  0.00    -0.271 OA
ATOM     49  N   SER A  15     -33.573   5.640  13.744  1.00  0.00    -0.194 N 
ATOM     50  CA  SER A  15     -32.537   6.042  14.691  1.00  0.00    +0.205 C 
ATOM     51  C   SER A  15     -31.236   6.370  13.979  1.00  0.00    +0.264 C 
ATOM     52  O   SER A  15     -31.040   5.985  12.827  1.00  0.00    -0.271 OA
ATOM     53  CB  SER A  15     -32.293   4.944  15.714  1.00  0.00    +0.213 C 
ATOM     54  OG  SER A  15     -31.696   3.812  15.105  1.00  0.00    -0.218 OA
ATOM     55  N   SER A  16     -30.345   7.083  14.663  1.00  0.00    -0.194 N 
ATOM     56  CA  SER A  16     -28.932   7.085  14.298  1.00  0.00    +0.205 C 
ATOM     57  C   SER A  16     -28.234   5.823  14.782  1.00  0.00    +0.264 C 
ATOM     58  O   SER A  16     -28.891   4.866  15.189  1.00  0.00    -0.271 OA
ATOM     59  CB  SER A  16     -28.230   8.305  14.873  1.00  0.00    +0.213 C 
ATOM     60  OG  SER A  16     -28.038   8.162  16.269  1.00  0.00    -0.218 OA
ATOM     61  N   ASP A  17     -26.905   5.823  14.739  1.00  0.00    -0.196 N 
ATOM     62  CA  ASP A  17     -26.153   4.587  14.539  1.00  0.00    +0.184 C 
ATOM     63  C   ASP A  17     -26.116   3.759  15.812  1.00  0.00    +0.262 C 
ATOM     64  O   ASP A  17     -26.499   4.237  16.879  1.00  0.00    -0.271 OA
ATOM     65  CB  ASP A  17     -24.733   4.885  14.086  1.00  0.00    +0.145 C 
ATOM     66  CG  ASP A  17     -24.672   5.808  12.879  1.00  0.00    +0.367 C 
ATOM     67  OD1 ASP A  17     -25.626   5.816  12.070  1.00  0.00    -0.246 OA
ATOM     68  OD2 ASP A  17     -23.664   6.531  12.739  1.00  0.00    -0.246 OA
ATOM     69  N   ALA A  18     -25.656   2.515  15.702  1.00  0.00    -0.196 N 
ATOM     70  CA  ALA A  18     -24.962   1.860  16.805  1.00  0.00    +0.173 C 
ATOM     71  C   ALA A  18     -24.580   0.435  16.442  1.00  0.00    +0.262 C 
ATOM     72  O   ALA A  18     -25.215  -0.516  16.897  1.00  0.00    -0.271 OA
ATOM     73  CB  ALA A  18     -25.825   1.852  18.057  1.00  0.00    +0.033 C 
ATOM     74  N   ILE A  19     -23.542   0.284  15.625  1.00  0.00    -0.196 N 
ATOM     75  CA  ILE A  19     -22.738  -0.934  15.633  1.00  0.00    +0.173 C 
ATOM     76  C   ILE A  19     -21.262  -0.574  15.580  1.00  0.00    +0.262 C 
ATOM     77  O   ILE A  19     -20.810   0.073  14.636  1.00  0.00    -0.271 OA
ATOM     78  CB  ILE A  19     -23.080  -1.849  14.468  1.00  0.00    +0.029 C 
ATOM     79  CG1 ILE A  19     -24.593  -1.927  14.270  1.00  0.00    +0.002 C 
ATOM     80  CG2 ILE A  19     -22.527  -3.251  14.711  1.00  0.00    +0.002 C 
ATOM     81  CD1 ILE A  19     -25.021  -2.873  13.160  1.00  0.00    +0.000 C 
ATOM     82  N   ARG A  20     -20.509  -0.993  16.593  1.00  0.00    -0.196 N 
ATOM     83  CA  ARG A  20     -19.090  -1.288  16.415  1.00  0.00    +0.173 C 
ATOM     84  C   ARG A  20     -18.896  -2.580  15.636  1.00  0.00    +0.262 C 
ATOM     85  O   ARG A  20     -17.968  -2.693  14.837  1.00  0.00    -0.271 OA
ATOM     86  CB  ARG A  20     -18.386  -1.394  17.757  1.00  0.00    +0.033 C 
ATOM     87  CG  ARG A  20     -16.939  -0.928  17.730  1.00  0.00    +0.029 C 
ATOM     88  CD  ARG A  20     -16.733   0.329  18.557  1.00  0.00    +0.129 C 
ATOM     89  NE  ARG A  20     -15.436   0.945  18.291  1.00  0.00    -0.234 NA
ATOM     90  CZ  ARG A  20     -14.655   1.495  19.216  1.00  0.00    +0.284 C 
ATOM     91  NH1 ARG A  20     -15.055   1.578  20.480  1.00  0.00    -0.104 N 
ATOM     92  NH2 ARG A  20     -13.460   1.968  18.869  1.00  0.00    -0.104 N 
ATOM     93  N   ARG A  21     -19.771  -3.553  15.869  1.00  0.00    -0.194 N 
ATOM     94  CA  ARG A  21     -19.447  -4.949  15.588  1.00  0.00    +0.198 C 
ATOM     95  C   ARG A  21     -20.530  -5.600  14.743  1.00  0.00    +0.384 C 
ATOM     96  O   ARG A  21     -20.911  -5.070  13.700  1.00  0.00    -0.244 OA
ATOM     97  CB  ARG A  21     -19.268  -5.736  16.876  1.00  0.00    +0.035 C 
ATOM     98  CG  ARG A  21     -17.987  -5.406  17.624  1.00  0.00    +0.029 C 
ATOM     99  CD  ARG A  21     -16.752  -5.779  16.821  1.00  0.00    +0.129 C 
ATOM    100  NE  ARG A  21     -15.532  -5.636  17.610  1.00  0.00    -0.234 NA
ATOM    101  CZ  ARG A  21     -14.326  -5.396  17.104  1.00  0.00    +0.284 C 
ATOM    102  NH1 ARG A  21     -14.155  -5.260  15.792  1.00  0.00    -0.104 N 
ATOM    103  NH2 ARG A  21     -13.280  -5.291  17.919  1.00  0.00    -0.104 N 
ATOM    104  OXT ARG A  21     -21.039  -6.664  15.090  1.00  0.00    -0.244 OA
ATOM    105  H   LEU A   9     -37.863   1.516   5.502  1.00  0.00    +0.000 HD
ATOM    106  H   VAL A  10     -38.260   4.817   8.532  1.00  0.00    +0.000 HD
ATOM    107  H   PHE A  11     -41.472   5.615   6.864  1.00  0.00    +0.000 HD
ATOM    108  H   PHE A  12     -38.846   5.997   7.762  1.00  0.00    +0.000 HD
ATOM    109  H   ALA A  13     -38.390   6.645   9.229  1.00  0.00    +0.000 HD
ATOM    110  H   GLY A  14     -35.716   6.062  10.346  1.00  0.00    +0.000 HD
ATOM    111  H   SER A  15     -33.812   4.688  13.665  1.00  0.00    +0.000 HD
ATOM    112  H   SER A  15     -30.843   4.065  14.720  1.00  0.00    +0.000 HD
ATOM    113  H   SER A  16     -30.645   7.620  15.431  1.00  0.00    +0.000 HD
ATOM    114  H   SER A  16     -28.899   8.072  16.707  1.00  0.00    +0.000 HD
ATOM    115  H   ASP A  17     -26.419   6.672  14.846  1.00  0.00    +0.000 HD
ATOM    116  H   ASP A  17     -22.970   6.496  13.368  1.00  0.00    +0.000 HD
ATOM    117  H   ALA A  18     -25.788   2.027  14.857  1.00  0.00    +0.000 HD
ATOM    118  H   ILE A  19     -23.311   1.009  15.001  1.00  0.00    +0.000 HD
ATOM    119  H   ARG A  20     -20.917  -1.107  17.482  1.00  0.00    +0.000 HD
ATOM    120  H   ARG A  20     -15.937   1.229  20.741  1.00  0.00    +0.000 HD
ATOM    121  H   ARG A  20     -14.469   1.988  21.156  1.00  0.00    +0.000 HD
ATOM    122  H   ARG A  20     -13.160   1.908  17.934  1.00  0.00    +0.000 HD
ATOM    123  H   ARG A  20     -12.877   2.377  19.549  1.00  0.00    +0.000 HD
ATOM    124  H   ARG A  21     -20.656  -3.329  16.238  1.00  0.00    +0.000 HD
ATOM    125  H   ARG A  21     -20.533  -4.260  13.421  1.00  0.00    +0.000 HD
ATOM    126  H   ARG A  21     -14.927  -5.337  15.185  1.00  0.00    +0.000 HD
ATOM    127  H   ARG A  21     -13.258  -5.083  15.428  1.00  0.00    +0.000 HD
ATOM    128  H   ARG A  21     -13.400  -5.391  18.890  1.00  0.00    +0.000 HD
ATOM    129  H   ARG A  21     -12.384  -5.115  17.550  1.00  0.00    +0.000 HD
ENDROOT
TORSDOF 0
