REMARK  Name = /var/folders/yp/yjbh3p597675h2qddgqr02y00000gn/T/tmpi69zqs6r.pdb
REMARK     285 UNITARY VALUES FOR THE UNIT CELL AUTOMATICALLY SET
REMARK     285 BY MDANALYSIS PDBWRITER BECAUSE UNIT CELL INFORMATION
REMARK     285 WAS MISSING.
REMARK     285 PROTEIN DATA BANK CONVENTIONS REQUIRE THAT
REMARK     285 CRYST1 RECORD IS INCLUDED, BUT THE VALUES ON
REMARK     285 THIS RECORD ARE MEANINGLESS.
REMARK     285 UNITARY VALUES FOR THE UNIT CELL AUTOMATICALLY SET
REMARK     285 BY MDANALYSIS PDBWRITER BECAUSE UNIT CELL INFORMATION
REMARK     285 WAS MISSING.
REMARK     285 PROTEIN DATA BANK CONVENTIONS REQUIRE THAT
REMARK     285 CRYST1 RECORD IS INCLUDED, BUT THE VALUES ON
REMARK     285 THIS RECORD ARE MEANINGLESS.
REMARK                            x       y       z     vdW  Elec       q    Type
REMARK                         _______ _______ _______ _____ _____    ______ ____
ROOT
ATOM      1  N   MET A   1      -5.913  15.432  16.405  1.00  0.00    -0.123 NA
ATOM      2  CA  MET A   1      -5.578  14.065  16.013  1.00  0.00    +0.170 C 
ATOM      3  C   MET A   1      -6.730  13.118  16.304  1.00  0.00    +0.259 C 
ATOM      4  O   MET A   1      -7.615  13.435  17.097  1.00  0.00    -0.272 OA
ATOM      5  CB  MET A   1      -4.331  13.584  16.737  1.00  0.00    +0.040 C 
ATOM      6  CG  MET A   1      -3.065  14.319  16.328  1.00  0.00    +0.060 C 
ATOM      7  SD  MET A   1      -3.371  15.594  15.079  1.00  0.00    -0.139 S 
ATOM      8  CE  MET A   1      -1.832  15.535  14.166  1.00  0.00    +0.069 C 
ATOM      9  N   LYS A   2      -6.722  11.953  15.661  1.00  0.00    -0.197 N 
ATOM     10  CA  LYS A   2      -7.713  10.921  15.947  1.00  0.00    +0.173 C 
ATOM     11  C   LYS A   2      -7.302  10.087  17.149  1.00  0.00    +0.262 C 
ATOM     12  O   LYS A   2      -8.041  10.001  18.130  1.00  0.00    -0.271 OA
ATOM     13  CB  LYS A   2      -7.911  10.012  14.743  1.00  0.00    +0.031 C 
ATOM     14  CG  LYS A   2      -8.907  10.546  13.727  1.00  0.00    +0.009 C 
ATOM     15  CD  LYS A   2      -9.140   9.562  12.593  1.00  0.00    +0.049 C 
ATOM     16  CE  LYS A   2      -8.007   9.522  11.674  1.00  0.00    +0.096 C 
ATOM     17  NZ  LYS A   2      -7.844   8.619  10.711  1.00  0.00    -0.151 NA
ATOM     18  N   GLN A   3      -6.126   9.472  17.076  1.00  0.00    -0.196 N 
ATOM     19  CA  GLN A   3      -5.735   8.715  15.890  1.00  0.00    +0.173 C 
ATOM     20  C   GLN A   3      -6.392   7.345  15.875  1.00  0.00    +0.262 C 
ATOM     21  O   GLN A   3      -6.628   6.777  14.809  1.00  0.00    -0.271 OA
ATOM     22  CB  GLN A   3      -4.226   8.555  15.822  1.00  0.00    +0.041 C 
ATOM     23  CG  GLN A   3      -3.758   7.112  15.928  1.00  0.00    +0.091 C 
ATOM     24  CD  GLN A   3      -2.958   6.844  17.193  1.00  0.00    +0.261 C 
ATOM     25  OE1 GLN A   3      -3.492   6.328  18.184  1.00  0.00    -0.272 OA
ATOM     26  NE2 GLN A   3      -1.674   7.191  17.167  1.00  0.00    -0.088 N 
ATOM     27  N   ALA A   4      -6.687   6.811  17.056  1.00  0.00    -0.196 N 
ATOM     28  CA  ALA A   4      -7.377   5.529  17.161  1.00  0.00    +0.173 C 
ATOM     29  C   ALA A   4      -8.624   5.649  18.020  1.00  0.00    +0.262 C 
ATOM     30  O   ALA A   4      -8.684   6.480  18.925  1.00  0.00    -0.271 OA
ATOM     31  CB  ALA A   4      -6.460   4.468  17.744  1.00  0.00    +0.033 C 
ATOM     32  N   VAL A   5      -9.626   4.819  17.739  1.00  0.00    -0.196 N 
ATOM     33  CA  VAL A   5     -10.234   3.985  18.772  1.00  0.00    +0.173 C 
ATOM     34  C   VAL A   5      -9.590   2.608  18.766  1.00  0.00    +0.262 C 
ATOM     35  O   VAL A   5      -9.721   1.861  17.798  1.00  0.00    -0.271 OA
ATOM     36  CB  VAL A   5     -11.734   3.843  18.576  1.00  0.00    +0.027 C 
ATOM     37  CG1 VAL A   5     -12.292   5.033  17.797  1.00  0.00    +0.002 C 
ATOM     38  CG2 VAL A   5     -12.051   2.574  17.787  1.00  0.00    +0.002 C 
ATOM     39  N   ASN A   6      -8.894   2.270  19.848  1.00  0.00    -0.196 N 
ATOM     40  CA  ASN A   6      -9.450   1.381  20.864  1.00  0.00    +0.182 C 
ATOM     41  C   ASN A   6     -10.531   2.073  21.678  1.00  0.00    +0.262 C 
ATOM     42  O   ASN A   6     -11.411   1.416  22.233  1.00  0.00    -0.271 OA
ATOM     43  CB  ASN A   6      -8.363   0.871  21.795  1.00  0.00    +0.120 C 
ATOM     44  CG  ASN A   6      -7.317   0.038  21.073  1.00  0.00    +0.263 C 
ATOM     45  OD1 ASN A   6      -6.641   0.522  20.166  1.00  0.00    -0.272 OA
ATOM     46  ND2 ASN A   6      -7.182  -1.224  21.475  1.00  0.00    -0.088 N 
ATOM     47  N   ALA A   7     -10.468   3.400  21.749  1.00  0.00    -0.196 N 
ATOM     48  CA  ALA A   7     -11.122   4.136  22.825  1.00  0.00    +0.173 C 
ATOM     49  C   ALA A   7     -12.619   3.876  22.834  1.00  0.00    +0.262 C 
ATOM     50  O   ALA A   7     -13.320   4.297  23.753  1.00  0.00    -0.271 OA
ATOM     51  CB  ALA A   7     -10.867   5.629  22.692  1.00  0.00    +0.033 C 
ATOM     52  N   LEU A   8     -13.111   3.183  21.810  1.00  0.00    -0.196 N 
ATOM     53  CA  LEU A   8     -14.546   3.124  21.551  1.00  0.00    +0.173 C 
ATOM     54  C   LEU A   8     -15.229   2.154  22.501  1.00  0.00    +0.262 C 
ATOM     55  O   LEU A   8     -14.976   0.951  22.452  1.00  0.00    -0.271 OA
ATOM     56  CB  LEU A   8     -14.816   2.705  20.115  1.00  0.00    +0.031 C 
ATOM     57  CG  LEU A   8     -14.454   3.727  19.035  1.00  0.00    +0.002 C 
ATOM     58  CD1 LEU A   8     -15.531   3.759  17.956  1.00  0.00    +0.000 C 
ATOM     59  CD2 LEU A   8     -13.291   3.224  18.188  1.00  0.00    +0.002 C 
ATOM     60  N   LEU A   9     -16.096   2.676  23.364  1.00  0.00    -0.196 N 
ATOM     61  CA  LEU A   9     -17.367   2.019  23.655  1.00  0.00    +0.173 C 
ATOM     62  C   LEU A   9     -18.305   2.098  22.462  1.00  0.00    +0.262 C 
ATOM     63  O   LEU A   9     -18.676   3.189  22.030  1.00  0.00    -0.271 OA
ATOM     64  CB  LEU A   9     -18.033   2.650  24.867  1.00  0.00    +0.035 C 
ATOM     65  CG  LEU A   9     -17.482   2.232  26.232  1.00  0.00    +0.021 C 
ATOM     66  CD1 LEU A   9     -17.698   3.342  27.252  1.00  0.00    +0.011 C 
ATOM     67  CD2 LEU A   9     -15.957   2.225  26.214  1.00  0.00    +0.004 C 
ATOM     68  N   VAL A  10     -18.691   0.944  21.927  1.00  0.00    -0.196 N 
ATOM     69  CA  VAL A  10     -19.936   0.832  21.173  1.00  0.00    +0.173 C 
ATOM     70  C   VAL A  10     -21.077   0.483  22.114  1.00  0.00    +0.262 C 
ATOM     71  O   VAL A  10     -22.244   0.545  21.731  1.00  0.00    -0.271 OA
ATOM     72  CB  VAL A  10     -19.843  -0.217  20.078  1.00  0.00    +0.029 C 
ATOM     73  CG1 VAL A  10     -19.358   0.409  18.771  1.00  0.00    +0.002 C 
ATOM     74  CG2 VAL A  10     -18.854  -1.311  20.470  1.00  0.00    +0.002 C 
ATOM     75  N   PHE A  11     -20.742   0.116  23.348  1.00  0.00    -0.196 N 
ATOM     76  CA  PHE A  11     -21.753  -0.093  24.379  1.00  0.00    +0.177 C 
ATOM     77  C   PHE A  11     -21.951   1.170  25.203  1.00  0.00    +0.262 C 
ATOM     78  O   PHE A  11     -23.060   1.456  25.652  1.00  0.00    -0.271 OA
ATOM     79  CB  PHE A  11     -21.364  -1.241  25.296  1.00  0.00    +0.057 C 
ATOM     80  CG  PHE A  11     -22.304  -1.443  26.447  1.00  0.00    -0.020 A 
ATOM     81  CD1 PHE A  11     -22.358  -0.507  27.473  1.00  0.00    -0.004 A 
ATOM     82  CE1 PHE A  11     -23.230  -0.693  28.538  1.00  0.00    -0.000 A 
ATOM     83  CD2 PHE A  11     -23.123  -2.566  26.487  1.00  0.00    -0.004 A 
ATOM     84  CE2 PHE A  11     -23.994  -2.753  27.554  1.00  0.00    -0.000 A 
ATOM     85  CZ  PHE A  11     -24.048  -1.816  28.579  1.00  0.00    -0.000 A 
ATOM     86  N   PHE A  12     -20.875   1.926  25.404  1.00  0.00    -0.196 N 
ATOM     87  CA  PHE A  12     -20.845   2.941  26.452  1.00  0.00    +0.177 C 
ATOM     88  C   PHE A  12     -20.953   4.336  25.856  1.00  0.00    +0.262 C 
ATOM     89  O   PHE A  12     -21.598   5.211  26.429  1.00  0.00    -0.271 OA
ATOM     90  CB  PHE A  12     -19.568   2.838  27.271  1.00  0.00    +0.051 C 
ATOM     91  CG  PHE A  12     -18.955   1.470  27.268  1.00  0.00    -0.024 A 
ATOM     92  CD1 PHE A  12     -17.708   1.268  26.688  1.00  0.00    -0.027 A 
ATOM     93  CE1 PHE A  12     -17.140  -0.002  26.685  1.00  0.00    -0.005 A 
ATOM     94  CD2 PHE A  12     -19.634   0.402  27.845  1.00  0.00    -0.005 A 
ATOM     95  CE2 PHE A  12     -19.066  -0.866  27.843  1.00  0.00    -0.000 A 
ATOM     96  CZ  PHE A  12     -17.819  -1.067  27.262  1.00  0.00    -0.000 A 
ATOM     97  N   ALA A  13     -20.321   4.543  24.704  1.00  0.00    -0.196 N 
ATOM     98  CA  ALA A  13     -20.962   5.252  23.601  1.00  0.00    +0.173 C 
ATOM     99  C   ALA A  13     -22.177   4.490  23.093  1.00  0.00    +0.262 C 
ATOM    100  O   ALA A  13     -22.184   3.259  23.092  1.00  0.00    -0.271 OA
ATOM    101  CB  ALA A  13     -19.986   5.472  22.459  1.00  0.00    +0.033 C 
ATOM    102  N   GLY A  14     -23.202   5.218  22.662  1.00  0.00    -0.194 N 
ATOM    103  CA  GLY A  14     -23.583   5.233  21.252  1.00  0.00    +0.201 C 
ATOM    104  C   GLY A  14     -22.673   6.152  20.454  1.00  0.00    +0.264 C 
ATOM    105  O   GLY A  14     -22.361   7.259  20.893  1.00  0.00    -0.271 OA
ATOM    106  N   SER A  15     -22.248   5.697  19.279  1.00  0.00    -0.194 N 
ATOM    107  CA  SER A  15     -22.016   6.597  18.154  1.00  0.00    +0.205 C 
ATOM    108  C   SER A  15     -23.314   7.225  17.673  1.00  0.00    +0.264 C 
ATOM    109  O   SER A  15     -24.341   6.552  17.592  1.00  0.00    -0.271 OA
ATOM    110  CB  SER A  15     -21.354   5.857  17.002  1.00  0.00    +0.213 C 
ATOM    111  OG  SER A  15     -20.262   5.082  17.465  1.00  0.00    -0.218 OA
ATOM    112  N   SER A  16     -23.270   8.515  17.356  1.00  0.00    -0.193 N 
ATOM    113  CA  SER A  16     -24.171   9.482  17.976  1.00  0.00    +0.207 C 
ATOM    114  C   SER A  16     -25.585   9.344  17.436  1.00  0.00    +0.264 C 
ATOM    115  O   SER A  16     -26.553   9.619  18.143  1.00  0.00    -0.271 OA
ATOM    116  CB  SER A  16     -23.677  10.901  17.745  1.00  0.00    +0.226 C 
ATOM    117  OG  SER A  16     -23.270  11.080  16.400  1.00  0.00    -0.167 OA
ATOM    118  N   ASP A  17     -25.705   8.916  16.182  1.00  0.00    -0.196 N 
ATOM    119  CA  ASP A  17     -25.413   9.791  15.050  1.00  0.00    +0.184 C 
ATOM    120  C   ASP A  17     -26.619   9.918  14.133  1.00  0.00    +0.262 C 
ATOM    121  O   ASP A  17     -27.261   8.920  13.804  1.00  0.00    -0.271 OA
ATOM    122  CB  ASP A  17     -24.225   9.273  14.257  1.00  0.00    +0.144 C 
ATOM    123  CG  ASP A  17     -22.887   9.681  14.852  1.00  0.00    +0.354 C 
ATOM    124  OD1 ASP A  17     -22.695  10.878  15.155  1.00  0.00    -0.295 OA
ATOM    125  OD2 ASP A  17     -22.020   8.797  15.019  1.00  0.00    -0.247 OA
ATOM    126  N   ALA A  18     -26.930  11.143  13.720  1.00  0.00    -0.196 N 
ATOM    127  CA  ALA A  18     -28.276  11.682  13.883  1.00  0.00    +0.173 C 
ATOM    128  C   ALA A  18     -28.959  11.862  12.538  1.00  0.00    +0.262 C 
ATOM    129  O   ALA A  18     -28.728  12.855  11.848  1.00  0.00    -0.271 OA
ATOM    130  CB  ALA A  18     -28.240  13.013  14.616  1.00  0.00    +0.033 C 
ATOM    131  N   ILE A  19     -29.801  10.904  12.162  1.00  0.00    -0.196 N 
ATOM    132  CA  ILE A  19     -31.137  11.218  11.662  1.00  0.00    +0.173 C 
ATOM    133  C   ILE A  19     -32.176  10.445  12.458  1.00  0.00    +0.262 C 
ATOM    134  O   ILE A  19     -32.207   9.215  12.416  1.00  0.00    -0.271 OA
ATOM    135  CB  ILE A  19     -31.282  10.893  10.185  1.00  0.00    +0.029 C 
ATOM    136  CG1 ILE A  19     -29.937  11.010   9.471  1.00  0.00    +0.002 C 
ATOM    137  CG2 ILE A  19     -32.288  11.833   9.528  1.00  0.00    +0.002 C 
ATOM    138  CD1 ILE A  19     -29.957  10.525   8.031  1.00  0.00    +0.000 C 
ATOM    139  N   ARG A  20     -33.028  11.164  13.183  1.00  0.00    -0.196 N 
ATOM    140  CA  ARG A  20     -34.365  10.668  13.498  1.00  0.00    +0.173 C 
ATOM    141  C   ARG A  20     -35.430  11.480  12.778  1.00  0.00    +0.262 C 
ATOM    142  O   ARG A  20     -36.411  10.926  12.285  1.00  0.00    -0.271 OA
ATOM    143  CB  ARG A  20     -34.620  10.711  14.994  1.00  0.00    +0.033 C 
ATOM    144  CG  ARG A  20     -33.823   9.685  15.784  1.00  0.00    +0.029 C 
ATOM    145  CD  ARG A  20     -34.139   9.745  17.270  1.00  0.00    +0.129 C 
ATOM    146  NE  ARG A  20     -33.731   8.523  17.958  1.00  0.00    -0.234 NA
ATOM    147  CZ  ARG A  20     -34.443   7.912  18.900  1.00  0.00    +0.284 C 
ATOM    148  NH1 ARG A  20     -35.703   8.264  19.135  1.00  0.00    -0.104 N 
ATOM    149  NH2 ARG A  20     -33.886   6.935  19.613  1.00  0.00    -0.104 N 
ATOM    150  N   ARG A  21     -35.238  12.794  12.717  1.00  0.00    -0.194 N 
ATOM    151  CA  ARG A  21     -36.351  13.731  12.845  1.00  0.00    +0.198 C 
ATOM    152  C   ARG A  21     -36.724  14.320  11.494  1.00  0.00    +0.384 C 
ATOM    153  O   ARG A  21     -37.306  13.637  10.654  1.00  0.00    -0.244 OA
ATOM    154  CB  ARG A  21     -36.006  14.854  13.810  1.00  0.00    +0.035 C 
ATOM    155  CG  ARG A  21     -35.693  14.379  15.218  1.00  0.00    +0.029 C 
ATOM    156  CD  ARG A  21     -36.939  14.325  16.087  1.00  0.00    +0.129 C 
ATOM    157  NE  ARG A  21     -37.249  12.960  16.502  1.00  0.00    -0.234 NA
ATOM    158  CZ  ARG A  21     -38.334  12.602  17.183  1.00  0.00    +0.284 C 
ATOM    159  NH1 ARG A  21     -39.261  13.501  17.502  1.00  0.00    -0.104 N 
ATOM    160  NH2 ARG A  21     -38.494  11.333  17.545  1.00  0.00    -0.104 N 
ATOM    161  OXT ARG A  21     -36.451  15.488  11.225  1.00  0.00    -0.244 OA
ATOM    162  H   MET A   1      -6.751  15.732  15.908  1.00  0.00    +0.000 HD
ATOM    163  H   MET A   1      -5.138  16.052  16.171  1.00  0.00    +0.000 HD
ATOM    164  H   LYS A   2      -6.033  11.784  14.978  1.00  0.00    +0.000 HD
ATOM    165  H   LYS A   2      -8.517   7.912  10.579  1.00  0.00    +0.000 HD
ATOM    166  H   GLN A   3      -5.505   9.529  17.837  1.00  0.00    +0.000 HD
ATOM    167  H   GLN A   3      -1.109   7.041  17.959  1.00  0.00    +0.000 HD
ATOM    168  H   GLN A   3      -1.291   7.598  16.357  1.00  0.00    +0.000 HD
ATOM    169  H   ALA A   4      -6.435   7.291  17.877  1.00  0.00    +0.000 HD
ATOM    170  H   VAL A   5      -9.963   4.765  16.816  1.00  0.00    +0.000 HD
ATOM    171  H   ASN A   6      -7.984   2.627  19.966  1.00  0.00    +0.000 HD
ATOM    172  H   ASN A   6      -7.744  -1.570  22.205  1.00  0.00    +0.000 HD
ATOM    173  H   ASN A   6      -6.520  -1.810  21.042  1.00  0.00    +0.000 HD
ATOM    174  H   ALA A   7      -9.968   3.896  21.061  1.00  0.00    +0.000 HD
ATOM    175  H   LEU A   8     -12.493   2.699  21.216  1.00  0.00    +0.000 HD
ATOM    176  H   LEU A   9     -15.877   3.522  23.815  1.00  0.00    +0.000 HD
ATOM    177  H   VAL A  10     -18.125   0.146  22.042  1.00  0.00    +0.000 HD
ATOM    178  H   PHE A  11     -19.792  -0.018  23.570  1.00  0.00    +0.000 HD
ATOM    179  H   PHE A  12     -20.082   1.798  24.833  1.00  0.00    +0.000 HD
ATOM    180  H   ALA A  13     -19.401   4.212  24.593  1.00  0.00    +0.000 HD
ATOM    181  H   GLY A  14     -23.714   5.758  23.306  1.00  0.00    +0.000 HD
ATOM    182  H   SER A  15     -22.086   4.732  19.165  1.00  0.00    +0.000 HD
ATOM    183  H   SER A  15     -19.602   5.664  17.873  1.00  0.00    +0.000 HD
ATOM    184  H   SER A  16     -22.617   8.825  16.688  1.00  0.00    +0.000 HD
ATOM    185  H   ASP A  17     -25.998   7.991  16.014  1.00  0.00    +0.000 HD
ATOM    186  H   ALA A  18     -26.236  11.699  13.296  1.00  0.00    +0.000 HD
ATOM    187  H   ILE A  19     -29.519   9.963  12.222  1.00  0.00    +0.000 HD
ATOM    188  H   ARG A  20     -32.751  12.049  13.515  1.00  0.00    +0.000 HD
ATOM    189  H   ARG A  20     -36.220   7.804  19.836  1.00  0.00    +0.000 HD
ATOM    190  H   ARG A  20     -36.119   8.984  18.609  1.00  0.00    +0.000 HD
ATOM    191  H   ARG A  20     -34.407   6.478  20.313  1.00  0.00    +0.000 HD
ATOM    192  H   ARG A  20     -32.954   6.670  19.441  1.00  0.00    +0.000 HD
ATOM    193  H   ARG A  21     -34.327  13.143  12.582  1.00  0.00    +0.000 HD
ATOM    194  H   ARG A  21     -40.061  13.226  18.007  1.00  0.00    +0.000 HD
ATOM    195  H   ARG A  21     -39.148  14.442  17.234  1.00  0.00    +0.000 HD
ATOM    196  H   ARG A  21     -39.296  11.062  18.049  1.00  0.00    +0.000 HD
ATOM    197  H   ARG A  21     -37.811  10.664  17.308  1.00  0.00    +0.000 HD
ATOM    198  H   ARG A  21     -36.008  16.023  11.854  1.00  0.00    +0.000 HD
ENDROOT
TORSDOF 0
