REMARK  Name = /var/folders/yp/yjbh3p597675h2qddgqr02y00000gn/T/tmp7gq6fgcd.pdb
REMARK     285 UNITARY VALUES FOR THE UNIT CELL AUTOMATICALLY SET
REMARK     285 BY MDANALYSIS PDBWRITER BECAUSE UNIT CELL INFORMATION
REMARK     285 WAS MISSING.
REMARK     285 PROTEIN DATA BANK CONVENTIONS REQUIRE THAT
REMARK     285 CRYST1 RECORD IS INCLUDED, BUT THE VALUES ON
REMARK     285 THIS RECORD ARE MEANINGLESS.
REMARK     285 UNITARY VALUES FOR THE UNIT CELL AUTOMATICALLY SET
REMARK     285 BY MDANALYSIS PDBWRITER BECAUSE UNIT CELL INFORMATION
REMARK     285 WAS MISSING.
REMARK     285 PROTEIN DATA BANK CONVENTIONS REQUIRE THAT
REMARK     285 CRYST1 RECORD IS INCLUDED, BUT THE VALUES ON
REMARK     285 THIS RECORD ARE MEANINGLESS.
REMARK                            x       y       z     vdW  Elec       q    Type
REMARK                         _______ _______ _______ _____ _____    ______ ____
ROOT
ATOM      1  N   MET A   1     -15.257   6.005  11.336  1.00  0.00    -0.123 NA
ATOM      2  CA  MET A   1     -13.900   6.526  11.475  1.00  0.00    +0.170 C 
ATOM      3  C   MET A   1     -13.892   7.811  12.288  1.00  0.00    +0.259 C 
ATOM      4  O   MET A   1     -14.826   8.606  12.209  1.00  0.00    -0.272 OA
ATOM      5  CB  MET A   1     -13.276   6.784  10.113  1.00  0.00    +0.040 C 
ATOM      6  CG  MET A   1     -13.046   5.521   9.298  1.00  0.00    +0.060 C 
ATOM      7  SD  MET A   1     -12.747   4.067  10.333  1.00  0.00    -0.139 S 
ATOM      8  CE  MET A   1     -14.231   3.121  10.009  1.00  0.00    +0.069 C 
ATOM      9  N   LYS A   2     -12.834   8.014  13.071  1.00  0.00    -0.197 N 
ATOM     10  CA  LYS A   2     -12.721   9.213  13.896  1.00  0.00    +0.173 C 
ATOM     11  C   LYS A   2     -12.216  10.392  13.081  1.00  0.00    +0.262 C 
ATOM     12  O   LYS A   2     -12.188  11.522  13.569  1.00  0.00    -0.271 OA
ATOM     13  CB  LYS A   2     -11.791   8.973  15.074  1.00  0.00    +0.031 C 
ATOM     14  CG  LYS A   2     -12.460   8.299  16.260  1.00  0.00    +0.009 C 
ATOM     15  CD  LYS A   2     -12.234   6.796  16.256  1.00  0.00    +0.049 C 
ATOM     16  CE  LYS A   2     -11.096   6.420  17.092  1.00  0.00    +0.096 C 
ATOM     17  NZ  LYS A   2     -10.110   5.615  16.711  1.00  0.00    -0.151 NA
ATOM     18  N   GLN A   3     -11.815  10.132  11.840  1.00  0.00    -0.196 N 
ATOM     19  CA  GLN A   3     -11.051  11.108  11.067  1.00  0.00    +0.173 C 
ATOM     20  C   GLN A   3     -11.948  12.218  10.547  1.00  0.00    +0.262 C 
ATOM     21  O   GLN A   3     -11.462  13.221  10.024  1.00  0.00    -0.271 OA
ATOM     22  CB  GLN A   3     -10.342  10.439   9.900  1.00  0.00    +0.041 C 
ATOM     23  CG  GLN A   3      -9.077   9.696  10.297  1.00  0.00    +0.091 C 
ATOM     24  CD  GLN A   3      -9.335   8.240  10.644  1.00  0.00    +0.261 C 
ATOM     25  OE1 GLN A   3      -9.717   7.436   9.780  1.00  0.00    -0.272 OA
ATOM     26  NE2 GLN A   3      -9.128   7.886  11.910  1.00  0.00    -0.088 N 
ATOM     27  N   ALA A   4     -13.258  12.042  10.687  1.00  0.00    -0.196 N 
ATOM     28  CA  ALA A   4     -14.216  13.021  10.183  1.00  0.00    +0.173 C 
ATOM     29  C   ALA A   4     -14.049  14.360  10.884  1.00  0.00    +0.261 C 
ATOM     30  O   ALA A   4     -13.912  14.414  12.105  1.00  0.00    -0.271 OA
ATOM     31  CB  ALA A   4     -15.641  12.527  10.367  1.00  0.00    +0.033 C 
ATOM     32  N   VAL A   5     -14.060  15.443  10.112  1.00  0.00    -0.202 N 
ATOM     33  CA  VAL A   5     -14.772  16.654  10.511  1.00  0.00    +0.135 C 
ATOM     34  C   VAL A   5     -16.270  16.442  10.362  1.00  0.00    +0.171 C 
ATOM     35  O   VAL A   5     -17.048  16.856  11.221  1.00  0.00    -0.342 OA
ATOM     36  CB  VAL A   5     -14.346  17.860   9.689  1.00  0.00    +0.024 C 
ATOM     37  CG1 VAL A   5     -14.571  19.152  10.471  1.00  0.00    +0.006 C 
ATOM     38  CG2 VAL A   5     -12.861  17.770   9.343  1.00  0.00    +0.002 C 
ATOM     39  N   ASN A   6     -16.675  15.796   9.273  1.00  0.00    -0.185 NA
ATOM     40  CA  ASN A   6     -17.861  16.221   8.533  1.00  0.00    +0.162 C 
ATOM     41  C   ASN A   6     -19.118  15.547   9.062  1.00  0.00    +0.258 C 
ATOM     42  O   ASN A   6     -20.218  15.814   8.584  1.00  0.00    -0.272 OA
ATOM     43  CB  ASN A   6     -17.714  15.926   7.051  1.00  0.00    +0.115 C 
ATOM     44  CG  ASN A   6     -16.634  16.768   6.391  1.00  0.00    +0.263 C 
ATOM     45  OD1 ASN A   6     -16.782  17.980   6.243  1.00  0.00    -0.272 OA
ATOM     46  ND2 ASN A   6     -15.540  16.125   5.993  1.00  0.00    -0.088 N 
ATOM     47  N   ALA A   7     -18.953  14.672  10.052  1.00  0.00    -0.197 N 
ATOM     48  CA  ALA A   7     -20.057  14.309  10.936  1.00  0.00    +0.173 C 
ATOM     49  C   ALA A   7     -20.610  15.532  11.650  1.00  0.00    +0.262 C 
ATOM     50  O   ALA A   7     -21.641  15.451  12.316  1.00  0.00    -0.271 OA
ATOM     51  CB  ALA A   7     -19.610  13.281  11.962  1.00  0.00    +0.033 C 
ATOM     52  N   LEU A   8     -19.926  16.663  11.512  1.00  0.00    -0.196 N 
ATOM     53  CA  LEU A   8     -19.246  17.285  12.645  1.00  0.00    +0.173 C 
ATOM     54  C   LEU A   8     -20.245  17.963  13.570  1.00  0.00    +0.262 C 
ATOM     55  O   LEU A   8     -21.121  18.695  13.111  1.00  0.00    -0.271 OA
ATOM     56  CB  LEU A   8     -18.222  18.302  12.168  1.00  0.00    +0.034 C 
ATOM     57  CG  LEU A   8     -16.761  17.855  12.207  1.00  0.00    +0.036 C 
ATOM     58  CD1 LEU A   8     -16.096  18.102  10.858  1.00  0.00    +0.045 C 
ATOM     59  CD2 LEU A   8     -16.665  16.333  12.238  1.00  0.00    +0.144 C 
ATOM     60  N   LEU A   9     -20.112  17.723  14.871  1.00  0.00    -0.196 N 
ATOM     61  CA  LEU A   9     -19.400  18.649  15.746  1.00  0.00    +0.173 C 
ATOM     62  C   LEU A   9     -17.897  18.519  15.565  1.00  0.00    +0.262 C 
ATOM     63  O   LEU A   9     -17.350  17.420  15.643  1.00  0.00    -0.271 OA
ATOM     64  CB  LEU A   9     -19.760  18.397  17.202  1.00  0.00    +0.031 C 
ATOM     65  CG  LEU A   9     -21.174  18.799  17.625  1.00  0.00    +0.002 C 
ATOM     66  CD1 LEU A   9     -22.065  18.967  16.400  1.00  0.00    +0.000 C 
ATOM     67  CD2 LEU A   9     -21.195  20.239  18.126  1.00  0.00    +0.000 C 
ATOM     68  N   VAL A  10     -17.226  19.641  15.322  1.00  0.00    -0.196 N 
ATOM     69  CA  VAL A  10     -15.799  19.750  15.610  1.00  0.00    +0.173 C 
ATOM     70  C   VAL A  10     -15.595  20.111  17.072  1.00  0.00    +0.262 C 
ATOM     71  O   VAL A  10     -14.614  19.697  17.687  1.00  0.00    -0.271 OA
ATOM     72  CB  VAL A  10     -15.123  20.792  14.732  1.00  0.00    +0.029 C 
ATOM     73  CG1 VAL A  10     -13.810  21.256  15.359  1.00  0.00    +0.002 C 
ATOM     74  CG2 VAL A  10     -14.807  20.206  13.358  1.00  0.00    +0.002 C 
ATOM     75  N   PHE A  11     -16.521  20.884  17.630  1.00  0.00    -0.196 N 
ATOM     76  CA  PHE A  11     -16.159  21.992  18.508  1.00  0.00    +0.177 C 
ATOM     77  C   PHE A  11     -15.649  21.476  19.845  1.00  0.00    +0.262 C 
ATOM     78  O   PHE A  11     -14.567  21.856  20.290  1.00  0.00    -0.271 OA
ATOM     79  CB  PHE A  11     -17.345  22.915  18.739  1.00  0.00    +0.057 C 
ATOM     80  CG  PHE A  11     -17.286  23.664  20.036  1.00  0.00    -0.020 A 
ATOM     81  CD1 PHE A  11     -16.574  24.855  20.120  1.00  0.00    -0.004 A 
ATOM     82  CE1 PHE A  11     -16.520  25.550  21.322  1.00  0.00    -0.000 A 
ATOM     83  CD2 PHE A  11     -17.946  23.168  21.155  1.00  0.00    -0.004 A 
ATOM     84  CE2 PHE A  11     -17.892  23.865  22.358  1.00  0.00    -0.000 A 
ATOM     85  CZ  PHE A  11     -17.179  25.054  22.441  1.00  0.00    -0.000 A 
ATOM     86  N   PHE A  12     -16.429  20.610  20.485  1.00  0.00    -0.196 N 
ATOM     87  CA  PHE A  12     -17.239  21.018  21.629  1.00  0.00    +0.177 C 
ATOM     88  C   PHE A  12     -16.557  20.641  22.935  1.00  0.00    +0.262 C 
ATOM     89  O   PHE A  12     -16.576  21.412  23.894  1.00  0.00    -0.271 OA
ATOM     90  CB  PHE A  12     -18.617  20.378  21.574  1.00  0.00    +0.057 C 
ATOM     91  CG  PHE A  12     -18.587  18.878  21.541  1.00  0.00    -0.020 A 
ATOM     92  CD1 PHE A  12     -18.221  18.216  20.375  1.00  0.00    -0.004 A 
ATOM     93  CE1 PHE A  12     -18.193  16.826  20.344  1.00  0.00    -0.000 A 
ATOM     94  CD2 PHE A  12     -18.926  18.151  22.676  1.00  0.00    -0.004 A 
ATOM     95  CE2 PHE A  12     -18.898  16.761  22.645  1.00  0.00    -0.000 A 
ATOM     96  CZ  PHE A  12     -18.531  16.100  21.479  1.00  0.00    -0.000 A 
ATOM     97  N   ALA A  13     -15.955  19.455  22.974  1.00  0.00    -0.196 N 
ATOM     98  CA  ALA A  13     -15.581  18.835  24.240  1.00  0.00    +0.173 C 
ATOM     99  C   ALA A  13     -14.501  19.642  24.946  1.00  0.00    +0.262 C 
ATOM    100  O   ALA A  13     -14.160  19.358  26.094  1.00  0.00    -0.271 OA
ATOM    101  CB  ALA A  13     -15.090  17.414  24.021  1.00  0.00    +0.033 C 
ATOM    102  N   GLY A  14     -13.963  20.646  24.262  1.00  0.00    -0.194 N 
ATOM    103  CA  GLY A  14     -12.756  21.324  24.727  1.00  0.00    +0.201 C 
ATOM    104  C   GLY A  14     -11.598  21.087  23.772  1.00  0.00    +0.264 C 
ATOM    105  O   GLY A  14     -11.521  20.038  23.133  1.00  0.00    -0.271 OA
ATOM    106  N   SER A  15     -10.697  22.060  23.675  1.00  0.00    -0.194 N 
ATOM    107  CA  SER A  15     -10.205  22.511  22.376  1.00  0.00    +0.205 C 
ATOM    108  C   SER A  15      -9.274  21.484  21.752  1.00  0.00    +0.264 C 
ATOM    109  O   SER A  15      -8.639  20.705  22.461  1.00  0.00    -0.271 OA
ATOM    110  CB  SER A  15      -9.477  23.838  22.511  1.00  0.00    +0.213 C 
ATOM    111  OG  SER A  15      -8.261  23.676  23.222  1.00  0.00    -0.218 OA
ATOM    112  N   SER A  16      -9.194  21.481  20.425  1.00  0.00    -0.194 N 
ATOM    113  CA  SER A  16      -7.961  21.108  19.738  1.00  0.00    +0.205 C 
ATOM    114  C   SER A  16      -6.858  22.122  19.994  1.00  0.00    +0.264 C 
ATOM    115  O   SER A  16      -7.133  23.300  20.215  1.00  0.00    -0.271 OA
ATOM    116  CB  SER A  16      -8.196  20.981  18.242  1.00  0.00    +0.213 C 
ATOM    117  OG  SER A  16      -9.232  20.053  17.973  1.00  0.00    -0.218 OA
ATOM    118  N   ASP A  17      -5.608  21.666  19.965  1.00  0.00    -0.196 N 
ATOM    119  CA  ASP A  17      -4.790  21.772  18.761  1.00  0.00    +0.184 C 
ATOM    120  C   ASP A  17      -4.542  20.404  18.146  1.00  0.00    +0.262 C 
ATOM    121  O   ASP A  17      -4.484  19.403  18.857  1.00  0.00    -0.271 OA
ATOM    122  CB  ASP A  17      -3.459  22.439  19.067  1.00  0.00    +0.145 C 
ATOM    123  CG  ASP A  17      -3.611  23.823  19.676  1.00  0.00    +0.367 C 
ATOM    124  OD1 ASP A  17      -3.273  24.005  20.866  1.00  0.00    -0.246 OA
ATOM    125  OD2 ASP A  17      -4.071  24.736  18.959  1.00  0.00    -0.246 OA
ATOM    126  N   ALA A  18      -4.400  20.361  16.825  1.00  0.00    -0.196 N 
ATOM    127  CA  ALA A  18      -4.290  19.091  16.113  1.00  0.00    +0.173 C 
ATOM    128  C   ALA A  18      -3.110  19.102  15.154  1.00  0.00    +0.262 C 
ATOM    129  O   ALA A  18      -3.057  19.925  14.241  1.00  0.00    -0.271 OA
ATOM    130  CB  ALA A  18      -5.567  18.790  15.344  1.00  0.00    +0.033 C 
ATOM    131  N   ILE A  19      -2.164  18.190  15.359  1.00  0.00    -0.198 N 
ATOM    132  CA  ILE A  19      -2.263  17.222  16.448  1.00  0.00    +0.152 C 
ATOM    133  C   ILE A  19      -1.044  17.341  17.350  1.00  0.00    +0.244 C 
ATOM    134  O   ILE A  19       0.006  16.771  17.058  1.00  0.00    -0.375 OA
ATOM    135  CB  ILE A  19      -2.379  15.798  15.933  1.00  0.00    +0.051 C 
ATOM    136  CG1 ILE A  19      -3.474  15.041  16.681  1.00  0.00    +0.004 C 
ATOM    137  CG2 ILE A  19      -1.051  15.063  16.097  1.00  0.00    +0.125 C 
ATOM    138  CD1 ILE A  19      -3.493  15.302  18.178  1.00  0.00    +0.006 C 
ATOM    139  N   ARG A  20      -1.184  18.080  18.446  1.00  0.00    -0.231 NA
ATOM    140  CA  ARG A  20      -0.048  18.371  19.316  1.00  0.00    +0.184 C 
ATOM    141  C   ARG A  20       0.211  17.220  20.276  1.00  0.00    +0.264 C 
ATOM    142  O   ARG A  20       1.352  16.977  20.666  1.00  0.00    -0.271 OA
ATOM    143  CB  ARG A  20      -0.283  19.647  20.106  1.00  0.00    +0.036 C 
ATOM    144  CG  ARG A  20       0.894  20.057  20.977  1.00  0.00    +0.029 C 
ATOM    145  CD  ARG A  20       0.448  20.849  22.194  1.00  0.00    +0.129 C 
ATOM    146  NE  ARG A  20       0.166  22.242  21.857  1.00  0.00    -0.234 NA
ATOM    147  CZ  ARG A  20       0.938  23.273  22.187  1.00  0.00    +0.284 C 
ATOM    148  NH1 ARG A  20       2.114  23.079  22.776  1.00  0.00    -0.104 N 
ATOM    149  NH2 ARG A  20       0.528  24.512  21.924  1.00  0.00    -0.104 N 
ATOM    150  N   ARG A  21      -0.848  16.512  20.658  1.00  0.00    -0.194 N 
ATOM    151  CA  ARG A  21      -2.179  16.786  20.124  1.00  0.00    +0.198 C 
ATOM    152  C   ARG A  21      -3.202  16.898  21.242  1.00  0.00    +0.384 C 
ATOM    153  O   ARG A  21      -2.913  17.455  22.301  1.00  0.00    -0.244 OA
ATOM    154  CB  ARG A  21      -2.608  15.700  19.150  1.00  0.00    +0.035 C 
ATOM    155  CG  ARG A  21      -2.280  16.011  17.700  1.00  0.00    +0.049 C 
ATOM    156  CD  ARG A  21      -0.871  15.575  17.333  1.00  0.00    +0.125 C 
ATOM    157  NE  ARG A  21      -0.381  16.274  16.149  1.00  0.00    -0.238 NA
ATOM    158  CZ  ARG A  21       0.887  16.289  15.748  1.00  0.00    +0.280 C 
ATOM    159  NH1 ARG A  21       1.860  16.635  16.587  1.00  0.00    -0.104 NA
ATOM    160  NH2 ARG A  21       1.184  15.956  14.495  1.00  0.00    -0.104 N 
ATOM    161  OXT ARG A  21      -4.332  16.433  21.105  1.00  0.00    -0.244 OA
ATOM    162  H   MET A   1     -15.236   5.145  10.789  1.00  0.00    +0.000 HD
ATOM    163  H   MET A   1     -15.839   6.696  10.862  1.00  0.00    +0.000 HD
ATOM    164  H   LYS A   2     -12.115   7.342  13.094  1.00  0.00    +0.000 HD
ATOM    165  H   LYS A   2     -10.113   5.225  15.806  1.00  0.00    +0.000 HD
ATOM    166  H   GLN A   3     -12.039   9.264  11.434  1.00  0.00    +0.000 HD
ATOM    167  H   GLN A   3      -8.824   8.555  12.565  1.00  0.00    +0.000 HD
ATOM    168  H   GLN A   3      -9.278   6.954  12.191  1.00  0.00    +0.000 HD
ATOM    169  H   ALA A   4     -13.590  11.234  11.141  1.00  0.00    +0.000 HD
ATOM    170  H   VAL A   5     -13.578  15.429   9.253  1.00  0.00    +0.000 HD
ATOM    171  H   ASN A   6     -16.842  14.831   9.555  1.00  0.00    +0.000 HD
ATOM    172  H   ASN A   6     -14.808  16.621   5.559  1.00  0.00    +0.000 HD
ATOM    173  H   ASN A   6     -15.462  15.154   6.131  1.00  0.00    +0.000 HD
ATOM    174  H   ALA A   7     -18.069  14.262  10.191  1.00  0.00    +0.000 HD
ATOM    175  H   LEU A   8     -19.876  17.091  10.627  1.00  0.00    +0.000 HD
ATOM    176  H   LEU A   9     -20.502  16.902  15.251  1.00  0.00    +0.000 HD
ATOM    177  H   VAL A  10     -17.701  20.414  14.941  1.00  0.00    +0.000 HD
ATOM    178  H   PHE A  11     -17.472  20.706  17.447  1.00  0.00    +0.000 HD
ATOM    179  H   PHE A  12     -16.461  19.675  20.181  1.00  0.00    +0.000 HD
ATOM    180  H   ALA A  13     -15.759  18.987  22.131  1.00  0.00    +0.000 HD
ATOM    181  H   GLY A  14     -14.388  20.939  23.424  1.00  0.00    +0.000 HD
ATOM    182  H   SER A  15     -10.355  22.485  24.495  1.00  0.00    +0.000 HD
ATOM    183  H   SER A  15      -7.685  23.060  22.741  1.00  0.00    +0.000 HD
ATOM    184  H   SER A  16      -9.983  21.737  19.894  1.00  0.00    +0.000 HD
ATOM    185  H   SER A  16      -8.983  19.181  18.318  1.00  0.00    +0.000 HD
ATOM    186  H   ASP A  17      -5.228  21.249  20.771  1.00  0.00    +0.000 HD
ATOM    187  H   ASP A  17      -4.313  24.559  18.072  1.00  0.00    +0.000 HD
ATOM    188  H   ALA A  18      -4.369  21.203  16.315  1.00  0.00    +0.000 HD
ATOM    189  H   ILE A  19      -1.380  18.166  14.764  1.00  0.00    +0.000 HD
ATOM    190  H   ARG A  20       2.677  23.851  23.017  1.00  0.00    +0.000 HD
ATOM    191  H   ARG A  20       2.422  22.165  22.972  1.00  0.00    +0.000 HD
ATOM    192  H   ARG A  20       1.094  25.280  22.166  1.00  0.00    +0.000 HD
ATOM    193  H   ARG A  20      -0.342  24.660  21.488  1.00  0.00    +0.000 HD
ATOM    194  H   ARG A  21      -0.732  15.787  21.315  1.00  0.00    +0.000 HD
ATOM    195  H   ARG A  21       2.795  16.643  16.279  1.00  0.00    +0.000 HD
ATOM    196  H   ARG A  21       2.121  15.966  14.192  1.00  0.00    +0.000 HD
ATOM    197  H   ARG A  21       0.468  15.699  13.871  1.00  0.00    +0.000 HD
ATOM    198  H   ARG A  21      -4.569  16.005  20.306  1.00  0.00    +0.000 HD
ENDROOT
TORSDOF 0
