REMARK  Name = /var/folders/yp/yjbh3p597675h2qddgqr02y00000gn/T/tmp04wf3dq7.pdb
REMARK     285 UNITARY VALUES FOR THE UNIT CELL AUTOMATICALLY SET
REMARK     285 BY MDANALYSIS PDBWRITER BECAUSE UNIT CELL INFORMATION
REMARK     285 WAS MISSING.
REMARK     285 PROTEIN DATA BANK CONVENTIONS REQUIRE THAT
REMARK     285 CRYST1 RECORD IS INCLUDED, BUT THE VALUES ON
REMARK     285 THIS RECORD ARE MEANINGLESS.
REMARK     285 UNITARY VALUES FOR THE UNIT CELL AUTOMATICALLY SET
REMARK     285 BY MDANALYSIS PDBWRITER BECAUSE UNIT CELL INFORMATION
REMARK     285 WAS MISSING.
REMARK     285 PROTEIN DATA BANK CONVENTIONS REQUIRE THAT
REMARK     285 CRYST1 RECORD IS INCLUDED, BUT THE VALUES ON
REMARK     285 THIS RECORD ARE MEANINGLESS.
REMARK                            x       y       z     vdW  Elec       q    Type
REMARK                         _______ _______ _______ _____ _____    ______ ____
REMARK  Name = /var/folders/yp/yjbh3p597675h2qddgqr02y00000gn/T/tmp04wf3dq7.pdb
REMARK     285 UNITARY VALUES FOR THE UNIT CELL AUTOMATICALLY SET
REMARK     285 BY MDANALYSIS PDBWRITER BECAUSE UNIT CELL INFORMATION
REMARK     285 WAS MISSING.
REMARK     285 PROTEIN DATA BANK CONVENTIONS REQUIRE THAT
REMARK     285 CRYST1 RECORD IS INCLUDED, BUT THE VALUES ON
REMARK     285 THIS RECORD ARE MEANINGLESS.
REMARK     285 UNITARY VALUES FOR THE UNIT CELL AUTOMATICALLY SET
REMARK     285 BY MDANALYSIS PDBWRITER BECAUSE UNIT CELL INFORMATION
REMARK     285 WAS MISSING.
REMARK     285 PROTEIN DATA BANK CONVENTIONS REQUIRE THAT
REMARK     285 CRYST1 RECORD IS INCLUDED, BUT THE VALUES ON
REMARK     285 THIS RECORD ARE MEANINGLESS.
REMARK                            x       y       z     vdW  Elec       q    Type
REMARK                         _______ _______ _______ _____ _____    ______ ____
ROOT
ATOM      1  N   MET A   1     -32.471  -8.154   7.493  1.00  0.00    -0.105 NA
ATOM      2  CA  MET A   1     -31.487  -8.896   8.277  1.00  0.00    +0.222 C 
ATOM      3  C   MET A   1     -32.168  -9.758   9.327  1.00  0.00    +0.274 C 
ATOM      4  O   MET A   1     -33.193  -9.370   9.885  1.00  0.00    -0.270 OA
ATOM      5  CB  MET A   1     -30.510  -7.948   8.954  1.00  0.00    +0.045 C 
ATOM      6  CG  MET A   1     -29.676  -7.132   7.980  1.00  0.00    +0.004 C 
ATOM      7  N   LYS A   2     -31.599 -10.928   9.597  1.00  0.00    -0.195 N 
ATOM      8  CA  LYS A   2     -32.162 -11.836  10.593  1.00  0.00    +0.173 C 
ATOM      9  C   LYS A   2     -32.049 -11.249  11.991  1.00  0.00    +0.262 C 
ATOM     10  O   LYS A   2     -33.035 -11.193  12.725  1.00  0.00    -0.271 OA
ATOM     11  CB  LYS A   2     -31.464 -13.185  10.553  1.00  0.00    +0.031 C 
ATOM     12  CG  LYS A   2     -32.069 -14.160   9.555  1.00  0.00    +0.009 C 
ATOM     13  CD  LYS A   2     -31.143 -15.332   9.279  1.00  0.00    +0.049 C 
ATOM     14  CE  LYS A   2     -31.191 -16.323  10.352  1.00  0.00    +0.096 C 
ATOM     15  NZ  LYS A   2     -31.031 -16.048  11.644  1.00  0.00    -0.151 NA
ATOM     16  N   GLN A   3     -30.850 -10.811  12.360  1.00  0.00    -0.196 N 
ATOM     17  CA  GLN A   3     -29.629 -11.483  11.925  1.00  0.00    +0.173 C 
ATOM     18  C   GLN A   3     -28.752 -11.846  13.113  1.00  0.00    +0.262 C 
ATOM     19  O   GLN A   3     -29.091 -11.541  14.255  1.00  0.00    -0.271 OA
ATOM     20  CB  GLN A   3     -28.843 -10.610  10.961  1.00  0.00    +0.031 C 
ATOM     21  CG  GLN A   3     -29.118 -10.910   9.498  1.00  0.00    +0.002 C 
ATOM     22  NE2 GLN A   3     -30.095  -9.569   7.727  1.00  0.00    -0.105 NA
ATOM     23  N   ALA A   4     -27.625 -12.500  12.844  1.00  0.00    -0.196 N 
ATOM     24  CA  ALA A   4     -26.563 -12.623  13.838  1.00  0.00    +0.173 C 
ATOM     25  C   ALA A   4     -25.217 -12.225  13.254  1.00  0.00    +0.262 C 
ATOM     26  O   ALA A   4     -25.024 -12.270  12.040  1.00  0.00    -0.271 OA
ATOM     27  CB  ALA A   4     -26.484 -14.045  14.370  1.00  0.00    +0.033 C 
ATOM     28  N   VAL A   5     -24.285 -11.833  14.117  1.00  0.00    -0.196 N 
ATOM     29  CA  VAL A   5     -22.869 -11.845  13.764  1.00  0.00    +0.173 C 
ATOM     30  C   VAL A   5     -22.192 -13.049  14.396  1.00  0.00    +0.262 C 
ATOM     31  O   VAL A   5     -21.383 -13.719  13.753  1.00  0.00    -0.271 OA
ATOM     32  CB  VAL A   5     -22.163 -10.574  14.207  1.00  0.00    +0.029 C 
ATOM     33  CG1 VAL A   5     -20.648 -10.722  14.066  1.00  0.00    +0.002 C 
ATOM     34  CG2 VAL A   5     -22.603  -9.392  13.348  1.00  0.00    +0.002 C 
ATOM     35  N   ASN A   6     -22.519 -13.326  15.654  1.00  0.00    -0.196 N 
ATOM     36  CA  ASN A   6     -21.579 -13.111  16.751  1.00  0.00    +0.182 C 
ATOM     37  C   ASN A   6     -20.432 -14.109  16.704  1.00  0.00    +0.262 C 
ATOM     38  O   ASN A   6     -19.428 -13.937  17.394  1.00  0.00    -0.271 OA
ATOM     39  CB  ASN A   6     -22.279 -13.206  18.096  1.00  0.00    +0.120 C 
ATOM     40  CG  ASN A   6     -21.555 -12.435  19.187  1.00  0.00    +0.263 C 
ATOM     41  OD1 ASN A   6     -20.451 -12.799  19.589  1.00  0.00    -0.272 OA
ATOM     42  ND2 ASN A   6     -22.179 -11.366  19.672  1.00  0.00    -0.088 N 
ATOM     43  N   ALA A   7     -20.582 -15.151  15.892  1.00  0.00    -0.196 N 
ATOM     44  CA  ALA A   7     -19.682 -16.299  15.956  1.00  0.00    +0.173 C 
ATOM     45  C   ALA A   7     -18.246 -15.885  15.676  1.00  0.00    +0.262 C 
ATOM     46  O   ALA A   7     -17.318 -16.657  15.905  1.00  0.00    -0.271 OA
ATOM     47  CB  ALA A   7     -20.103 -17.372  14.964  1.00  0.00    +0.033 C 
ATOM     48  N   LEU A   8     -18.065 -14.663  15.180  1.00  0.00    -0.196 N 
ATOM     49  CA  LEU A   8     -17.308 -14.449  13.950  1.00  0.00    +0.173 C 
ATOM     50  C   LEU A   8     -16.049 -13.642  14.221  1.00  0.00    +0.262 C 
ATOM     51  O   LEU A   8     -16.038 -12.425  14.047  1.00  0.00    -0.271 OA
ATOM     52  CB  LEU A   8     -18.158 -13.730  12.913  1.00  0.00    +0.031 C 
ATOM     53  CG  LEU A   8     -17.958 -14.166  11.460  1.00  0.00    +0.002 C 
ATOM     54  CD1 LEU A   8     -18.243 -13.002  10.517  1.00  0.00    +0.000 C 
ATOM     55  CD2 LEU A   8     -19.081 -15.100  11.023  1.00  0.00    +0.000 C 
ATOM     56  N   LEU A   9     -14.987 -14.321  14.647  1.00  0.00    -0.196 N 
ATOM     57  CA  LEU A   9     -13.641 -13.763  14.553  1.00  0.00    +0.173 C 
ATOM     58  C   LEU A   9     -13.047 -14.010  13.176  1.00  0.00    +0.262 C 
ATOM     59  O   LEU A   9     -13.171 -15.102  12.627  1.00  0.00    -0.271 OA
ATOM     60  CB  LEU A   9     -12.734 -14.365  15.612  1.00  0.00    +0.033 C 
ATOM     61  CG  LEU A   9     -13.162 -14.154  17.066  1.00  0.00    +0.000 C 
ATOM     62  CD1 LEU A   9     -13.792 -15.426  17.622  1.00  0.00    +0.000 C 
ATOM     63  CD2 LEU A   9     -14.382 -13.241  17.138  1.00  0.00    +0.005 C 
ATOM     64  N   VAL A  10     -12.400 -12.991  12.616  1.00  0.00    -0.196 N 
ATOM     65  CA  VAL A  10     -11.074 -13.164  12.028  1.00  0.00    +0.173 C 
ATOM     66  C   VAL A  10     -10.008 -12.891  13.076  1.00  0.00    +0.262 C 
ATOM     67  O   VAL A  10      -8.920 -13.461  13.024  1.00  0.00    -0.271 OA
ATOM     68  CB  VAL A  10     -10.860 -12.248  10.834  1.00  0.00    +0.029 C 
ATOM     69  CG1 VAL A  10      -9.718 -12.760   9.960  1.00  0.00    +0.002 C 
ATOM     70  CG2 VAL A  10     -12.120 -12.186   9.975  1.00  0.00    +0.002 C 
ATOM     71  N   PHE A  11     -10.319 -12.018  14.030  1.00  0.00    -0.196 N 
ATOM     72  CA  PHE A  11      -9.305 -11.493  14.940  1.00  0.00    +0.177 C 
ATOM     73  C   PHE A  11      -8.912 -12.540  15.970  1.00  0.00    +0.262 C 
ATOM     74  O   PHE A  11      -7.798 -12.517  16.491  1.00  0.00    -0.271 OA
ATOM     75  CB  PHE A  11      -9.805 -10.245  15.648  1.00  0.00    +0.057 C 
ATOM     76  CG  PHE A  11     -11.207  -9.860  15.282  1.00  0.00    -0.020 A 
ATOM     77  CD1 PHE A  11     -12.281 -10.585  15.786  1.00  0.00    -0.004 A 
ATOM     78  CE1 PHE A  11     -13.581 -10.229  15.445  1.00  0.00    -0.000 A 
ATOM     79  CD2 PHE A  11     -11.434  -8.777  14.439  1.00  0.00    -0.004 A 
ATOM     80  CE2 PHE A  11     -12.733  -8.422  14.100  1.00  0.00    -0.000 A 
ATOM     81  CZ  PHE A  11     -13.807  -9.146  14.603  1.00  0.00    -0.000 A 
ATOM     82  N   PHE A  12      -9.828 -13.457  16.267  1.00  0.00    -0.196 N 
ATOM     83  CA  PHE A  12     -10.256 -13.687  17.644  1.00  0.00    +0.173 C 
ATOM     84  C   PHE A  12      -9.204 -14.471  18.411  1.00  0.00    +0.262 C 
ATOM     85  O   PHE A  12      -9.429 -15.625  18.777  1.00  0.00    -0.271 OA
ATOM     86  CB  PHE A  12     -11.578 -14.436  17.683  1.00  0.00    +0.031 C 
ATOM     87  CG  PHE A  12     -12.774 -13.548  17.850  1.00  0.00    +0.007 C 
ATOM     88  CD1 PHE A  12     -13.132 -13.091  19.114  1.00  0.00    +0.026 C 
ATOM     89  CE1 PHE A  12     -14.241 -12.268  19.268  1.00  0.00    -0.031 C 
ATOM     90  CD2 PHE A  12     -13.527 -13.178  16.741  1.00  0.00    +0.000 C 
ATOM     91  CE2 PHE A  12     -14.636 -12.356  16.895  1.00  0.00    +0.026 C 
ATOM     92  CZ  PHE A  12     -14.993 -11.900  18.159  1.00  0.00    -0.031 C 
ATOM     93  N   ALA A  13      -8.054 -13.847  18.653  1.00  0.00    -0.196 N 
ATOM     94  CA  ALA A  13      -7.530 -13.720  20.009  1.00  0.00    +0.173 C 
ATOM     95  C   ALA A  13      -8.397 -12.797  20.847  1.00  0.00    +0.262 C 
ATOM     96  O   ALA A  13      -8.376 -12.864  22.075  1.00  0.00    -0.271 OA
ATOM     97  CB  ALA A  13      -6.103 -13.197  19.989  1.00  0.00    +0.033 C 
ATOM     98  N   GLY A  14      -9.163 -11.934  20.185  1.00  0.00    -0.194 N 
ATOM     99  CA  GLY A  14      -9.802 -10.809  20.861  1.00  0.00    +0.201 C 
ATOM    100  C   GLY A  14     -10.854 -11.294  21.846  1.00  0.00    +0.264 C 
ATOM    101  O   GLY A  14     -11.857 -11.883  21.447  1.00  0.00    -0.271 OA
ATOM    102  N   SER A  15     -10.626 -11.045  23.132  1.00  0.00    -0.194 N 
ATOM    103  CA  SER A  15     -11.655 -10.465  23.990  1.00  0.00    +0.205 C 
ATOM    104  C   SER A  15     -11.817  -8.976  23.725  1.00  0.00    +0.264 C 
ATOM    105  O   SER A  15     -10.835  -8.237  23.699  1.00  0.00    -0.271 OA
ATOM    106  CB  SER A  15     -11.321 -10.687  25.455  1.00  0.00    +0.213 C 
ATOM    107  OG  SER A  15     -10.210  -9.897  25.843  1.00  0.00    -0.218 OA
ATOM    108  N   SER A  16     -13.056  -8.537  23.528  1.00  0.00    -0.194 N 
ATOM    109  CA  SER A  16     -13.345  -7.112  23.395  1.00  0.00    +0.205 C 
ATOM    110  C   SER A  16     -13.352  -6.423  24.750  1.00  0.00    +0.264 C 
ATOM    111  O   SER A  16     -13.077  -5.227  24.842  1.00  0.00    -0.271 OA
ATOM    112  CB  SER A  16     -14.686  -6.899  22.711  1.00  0.00    +0.213 C 
ATOM    113  OG  SER A  16     -15.749  -7.339  23.537  1.00  0.00    -0.218 OA
ATOM    114  N   ASP A  17     -13.667  -7.174  25.800  1.00  0.00    -0.196 N 
ATOM    115  CA  ASP A  17     -13.968  -6.578  27.099  1.00  0.00    +0.184 C 
ATOM    116  C   ASP A  17     -13.022  -7.097  28.170  1.00  0.00    +0.262 C 
ATOM    117  O   ASP A  17     -12.661  -8.273  28.168  1.00  0.00    -0.271 OA
ATOM    118  CB  ASP A  17     -15.404  -6.865  27.507  1.00  0.00    +0.145 C 
ATOM    119  CG  ASP A  17     -15.652  -6.653  28.993  1.00  0.00    +0.367 C 
ATOM    120  OD1 ASP A  17     -15.710  -5.488  29.442  1.00  0.00    -0.246 OA
ATOM    121  OD2 ASP A  17     -15.792  -7.662  29.717  1.00  0.00    -0.246 OA
ATOM    122  N   ALA A  18     -12.619  -6.220  29.086  1.00  0.00    -0.196 N 
ATOM    123  CA  ALA A  18     -11.216  -5.840  29.207  1.00  0.00    +0.173 C 
ATOM    124  C   ALA A  18     -10.737  -5.971  30.644  1.00  0.00    +0.262 C 
ATOM    125  O   ALA A  18     -11.316  -5.375  31.552  1.00  0.00    -0.271 OA
ATOM    126  CB  ALA A  18     -11.000  -4.413  28.730  1.00  0.00    +0.033 C 
ATOM    127  N   ILE A  19      -9.680  -6.751  30.853  1.00  0.00    -0.196 N 
ATOM    128  CA  ILE A  19      -8.688  -6.428  31.873  1.00  0.00    +0.173 C 
ATOM    129  C   ILE A  19      -7.333  -6.206  31.221  1.00  0.00    +0.262 C 
ATOM    130  O   ILE A  19      -6.627  -7.162  30.906  1.00  0.00    -0.271 OA
ATOM    131  CB  ILE A  19      -8.572  -7.525  32.921  1.00  0.00    +0.029 C 
ATOM    132  CG1 ILE A  19      -9.832  -7.583  33.781  1.00  0.00    +0.002 C 
ATOM    133  CG2 ILE A  19      -7.359  -7.279  33.815  1.00  0.00    +0.002 C 
ATOM    134  CD1 ILE A  19      -9.736  -8.549  34.951  1.00  0.00    +0.000 C 
ATOM    135  N   ARG A  20      -6.971  -4.943  31.016  1.00  0.00    -0.196 N 
ATOM    136  CA  ARG A  20      -5.583  -4.587  30.735  1.00  0.00    +0.173 C 
ATOM    137  C   ARG A  20      -4.740  -4.639  31.997  1.00  0.00    +0.262 C 
ATOM    138  O   ARG A  20      -3.600  -5.101  31.970  1.00  0.00    -0.271 OA
ATOM    139  CB  ARG A  20      -5.492  -3.199  30.122  1.00  0.00    +0.033 C 
ATOM    140  CG  ARG A  20      -4.068  -2.710  29.916  1.00  0.00    +0.029 C 
ATOM    141  CD  ARG A  20      -4.029  -1.259  29.462  1.00  0.00    +0.129 C 
ATOM    142  NE  ARG A  20      -4.431  -0.350  30.530  1.00  0.00    -0.234 NA
ATOM    143  CZ  ARG A  20      -4.576   0.964  30.393  1.00  0.00    +0.284 C 
ATOM    144  NH1 ARG A  20      -4.416   1.544  29.206  1.00  0.00    -0.104 N 
ATOM    145  NH2 ARG A  20      -4.884   1.707  31.452  1.00  0.00    -0.104 N 
ATOM    146  N   ARG A  21      -5.299  -4.167  33.108  1.00  0.00    -0.194 N 
ATOM    147  CA  ARG A  21      -4.570  -3.277  34.006  1.00  0.00    +0.198 C 
ATOM    148  C   ARG A  21      -3.692  -4.068  34.963  1.00  0.00    +0.384 C 
ATOM    149  O   ARG A  21      -2.729  -4.707  34.544  1.00  0.00    -0.244 OA
ATOM    150  CB  ARG A  21      -5.529  -2.404  34.801  1.00  0.00    +0.035 C 
ATOM    151  CG  ARG A  21      -6.394  -1.500  33.940  1.00  0.00    +0.029 C 
ATOM    152  CD  ARG A  21      -7.397  -0.718  34.772  1.00  0.00    +0.129 C 
ATOM    153  NE  ARG A  21      -8.296   0.069  33.933  1.00  0.00    -0.234 NA
ATOM    154  CZ  ARG A  21      -9.194   0.937  34.390  1.00  0.00    +0.284 C 
ATOM    155  NH1 ARG A  21      -9.767   1.817  33.574  1.00  0.00    -0.104 N 
ATOM    156  NH2 ARG A  21      -9.522   0.926  35.679  1.00  0.00    -0.104 N 
ATOM    157  OXT ARG A  21      -3.935  -4.079  36.169  1.00  0.00    -0.244 OA
ATOM    158  H   MET A   1     -33.115  -8.809   7.048  1.00  0.00    +0.000 HD
ATOM    159  H   MET A   1     -31.993  -7.607   6.777  1.00  0.00    +0.000 HD
ATOM    160  H   LYS A   2     -30.781 -11.189   9.115  1.00  0.00    +0.000 HD
ATOM    161  H   LYS A   2     -30.867 -15.122  11.934  1.00  0.00    +0.000 HD
ATOM    162  H   GLN A   3     -30.784 -10.017  12.939  1.00  0.00    +0.000 HD
ATOM    163  H   GLN A   3     -29.609 -10.023   8.501  1.00  0.00    +0.000 HD
ATOM    164  H   GLN A   3     -29.499  -8.843   7.330  1.00  0.00    +0.000 HD
ATOM    165  H   ALA A   4     -27.506 -12.910  11.957  1.00  0.00    +0.000 HD
ATOM    166  H   VAL A   5     -24.555 -11.529  15.013  1.00  0.00    +0.000 HD
ATOM    167  H   ASN A   6     -23.415 -13.683  15.851  1.00  0.00    +0.000 HD
ATOM    168  H   ASN A   6     -21.757 -10.829  20.381  1.00  0.00    +0.000 HD
ATOM    169  H   ASN A   6     -23.063 -11.111  19.322  1.00  0.00    +0.000 HD
ATOM    170  H   ALA A   7     -21.315 -15.149  15.234  1.00  0.00    +0.000 HD
ATOM    171  H   LEU A   8     -18.449 -13.889  15.651  1.00  0.00    +0.000 HD
ATOM    172  H   LEU A   9     -15.111 -15.217  15.034  1.00  0.00    +0.000 HD
ATOM    173  H   VAL A  10     -12.823 -12.102  12.598  1.00  0.00    +0.000 HD
ATOM    174  H   PHE A  11     -11.253 -11.719  14.123  1.00  0.00    +0.000 HD
ATOM    175  H   PHE A  12     -10.226 -13.992  15.542  1.00  0.00    +0.000 HD
ATOM    176  H   ALA A  13      -7.547 -13.464  17.901  1.00  0.00    +0.000 HD
ATOM    177  H   GLY A  14      -9.303 -12.058  19.218  1.00  0.00    +0.000 HD
ATOM    178  H   SER A  15      -9.744 -11.257  23.514  1.00  0.00    +0.000 HD
ATOM    179  H   SER A  15      -9.436 -10.144  25.312  1.00  0.00    +0.000 HD
ATOM    180  H   SER A  16     -13.794  -9.186  23.471  1.00  0.00    +0.000 HD
ATOM    181  H   SER A  16     -15.646  -8.287  23.718  1.00  0.00    +0.000 HD
ATOM    182  H   ASP A  17     -13.697  -8.153  25.700  1.00  0.00    +0.000 HD
ATOM    183  H   ASP A  17     -15.600  -4.757  28.866  1.00  0.00    +0.000 HD
ATOM    184  H   ALA A  18     -13.281  -5.820  29.695  1.00  0.00    +0.000 HD
ATOM    185  H   ILE A  19      -9.565  -7.563  30.308  1.00  0.00    +0.000 HD
ATOM    186  H   ARG A  20      -7.652  -4.234  31.054  1.00  0.00    +0.000 HD
ATOM    187  H   ARG A  20      -4.188   0.998  28.419  1.00  0.00    +0.000 HD
ATOM    188  H   ARG A  20      -4.526   2.518  29.115  1.00  0.00    +0.000 HD
ATOM    189  H   ARG A  20      -5.003   1.283  32.332  1.00  0.00    +0.000 HD
ATOM    190  H   ARG A  20      -4.993   2.681  31.356  1.00  0.00    +0.000 HD
ATOM    191  H   ARG A  21      -6.223  -4.423  33.328  1.00  0.00    +0.000 HD
ATOM    192  H   ARG A  21      -9.528   1.831  32.619  1.00  0.00    +0.000 HD
ATOM    193  H   ARG A  21     -10.430   2.454  33.924  1.00  0.00    +0.000 HD
ATOM    194  H   ARG A  21      -9.102   0.277  36.289  1.00  0.00    +0.000 HD
ATOM    195  H   ARG A  21     -10.186   1.567  36.023  1.00  0.00    +0.000 HD
ATOM    196  H   ARG A  21      -4.666  -3.597  36.504  1.00  0.00    +0.000 HD
ATOM      1  SD  MET A   1     -27.913  -7.532   8.063  1.00  0.00    +0.094 S 
ATOM      2  CE  MET A   1     -27.985  -9.212   8.675  1.00  0.00    +0.159 C 
ATOM      3  CD  GLN A   3     -29.123  -9.661   8.631  1.00  0.00    +0.036 C 
ATOM      4  OE1 GLN A   3     -28.258  -8.785   8.774  1.00  0.00    -0.289 OA
ATOM      5  H   MET A   1     -28.745  -6.536   8.469  1.00  0.00    +0.000 HD
ENDROOT
TORSDOF 0
