REMARK  Name = /var/folders/yp/yjbh3p597675h2qddgqr02y00000gn/T/tmpwkoufk4w.pdb
REMARK     285 UNITARY VALUES FOR THE UNIT CELL AUTOMATICALLY SET
REMARK     285 BY MDANALYSIS PDBWRITER BECAUSE UNIT CELL INFORMATION
REMARK     285 WAS MISSING.
REMARK     285 PROTEIN DATA BANK CONVENTIONS REQUIRE THAT
REMARK     285 CRYST1 RECORD IS INCLUDED, BUT THE VALUES ON
REMARK     285 THIS RECORD ARE MEANINGLESS.
REMARK     285 UNITARY VALUES FOR THE UNIT CELL AUTOMATICALLY SET
REMARK     285 BY MDANALYSIS PDBWRITER BECAUSE UNIT CELL INFORMATION
REMARK     285 WAS MISSING.
REMARK     285 PROTEIN DATA BANK CONVENTIONS REQUIRE THAT
REMARK     285 CRYST1 RECORD IS INCLUDED, BUT THE VALUES ON
REMARK     285 THIS RECORD ARE MEANINGLESS.
REMARK                            x       y       z     vdW  Elec       q    Type
REMARK                         _______ _______ _______ _____ _____    ______ ____
ROOT
ATOM      1  N   MET A   1      -3.350   9.831  -2.031  1.00  0.00    -0.123 NA
ATOM      2  CA  MET A   1      -3.243  11.149  -1.410  1.00  0.00    +0.170 C 
ATOM      3  C   MET A   1      -4.470  11.993  -1.712  1.00  0.00    +0.259 C 
ATOM      4  O   MET A   1      -5.017  11.930  -2.813  1.00  0.00    -0.272 OA
ATOM      5  CB  MET A   1      -1.997  11.874  -1.893  1.00  0.00    +0.040 C 
ATOM      6  CG  MET A   1      -1.557  13.005  -0.977  1.00  0.00    +0.060 C 
ATOM      7  SD  MET A   1      -1.258  12.452   0.721  1.00  0.00    -0.139 S 
ATOM      8  CE  MET A   1      -2.636  13.220   1.565  1.00  0.00    +0.069 C 
ATOM      9  N   LYS A   2      -4.905  12.783  -0.735  1.00  0.00    -0.197 N 
ATOM     10  CA  LYS A   2      -5.970  13.755  -0.962  1.00  0.00    +0.173 C 
ATOM     11  C   LYS A   2      -5.402  15.121  -1.311  1.00  0.00    +0.262 C 
ATOM     12  O   LYS A   2      -6.114  15.980  -1.828  1.00  0.00    -0.271 OA
ATOM     13  CB  LYS A   2      -6.863  13.875   0.264  1.00  0.00    +0.031 C 
ATOM     14  CG  LYS A   2      -8.110  13.010   0.203  1.00  0.00    +0.009 C 
ATOM     15  CD  LYS A   2      -8.665  12.719   1.588  1.00  0.00    +0.049 C 
ATOM     16  CE  LYS A   2      -8.556  13.879   2.467  1.00  0.00    +0.096 C 
ATOM     17  NZ  LYS A   2      -7.467  14.629   2.605  1.00  0.00    -0.151 NA
ATOM     18  N   GLN A   3      -4.119  15.322  -1.026  1.00  0.00    -0.196 N 
ATOM     19  CA  GLN A   3      -3.448  16.570  -1.384  1.00  0.00    +0.173 C 
ATOM     20  C   GLN A   3      -3.307  16.701  -2.891  1.00  0.00    +0.262 C 
ATOM     21  O   GLN A   3      -2.920  17.755  -3.393  1.00  0.00    -0.271 OA
ATOM     22  CB  GLN A   3      -2.075  16.650  -0.736  1.00  0.00    +0.041 C 
ATOM     23  CG  GLN A   3      -2.118  16.880   0.766  1.00  0.00    +0.091 C 
ATOM     24  CD  GLN A   3      -0.994  16.169   1.502  1.00  0.00    +0.261 C 
ATOM     25  OE1 GLN A   3       0.023  15.792   0.899  1.00  0.00    -0.272 OA
ATOM     26  NE2 GLN A   3      -1.164  15.980   2.807  1.00  0.00    -0.088 N 
ATOM     27  N   ALA A   4      -3.620  15.630  -3.615  1.00  0.00    -0.196 N 
ATOM     28  CA  ALA A   4      -3.368  15.584  -5.052  1.00  0.00    +0.173 C 
ATOM     29  C   ALA A   4      -4.155  16.661  -5.781  1.00  0.00    +0.262 C 
ATOM     30  O   ALA A   4      -5.287  16.968  -5.410  1.00  0.00    -0.271 OA
ATOM     31  CB  ALA A   4      -3.730  14.220  -5.619  1.00  0.00    +0.033 C 
ATOM     32  N   VAL A   5      -3.555  17.238  -6.818  1.00  0.00    -0.196 N 
ATOM     33  CA  VAL A   5      -3.624  18.680  -7.030  1.00  0.00    +0.173 C 
ATOM     34  C   VAL A   5      -4.775  19.009  -7.967  1.00  0.00    +0.262 C 
ATOM     35  O   VAL A   5      -5.374  20.079  -7.869  1.00  0.00    -0.271 OA
ATOM     36  CB  VAL A   5      -2.330  19.233  -7.604  1.00  0.00    +0.029 C 
ATOM     37  CG1 VAL A   5      -2.512  20.681  -8.054  1.00  0.00    +0.002 C 
ATOM     38  CG2 VAL A   5      -1.225  19.204  -6.549  1.00  0.00    +0.002 C 
ATOM     39  N   ASN A   6      -5.085  18.088  -8.876  1.00  0.00    -0.196 N 
ATOM     40  CA  ASN A   6      -6.406  18.050  -9.498  1.00  0.00    +0.182 C 
ATOM     41  C   ASN A   6      -7.481  17.644  -8.501  1.00  0.00    +0.262 C 
ATOM     42  O   ASN A   6      -8.636  18.041  -8.634  1.00  0.00    -0.271 OA
ATOM     43  CB  ASN A   6      -6.423  17.095 -10.680  1.00  0.00    +0.120 C 
ATOM     44  CG  ASN A   6      -5.557  17.575 -11.833  1.00  0.00    +0.263 C 
ATOM     45  OD1 ASN A   6      -5.691  18.706 -12.295  1.00  0.00    -0.272 OA
ATOM     46  ND2 ASN A   6      -4.660  16.712 -12.300  1.00  0.00    -0.088 N 
ATOM     47  N   ALA A   7      -7.098  16.853  -7.504  1.00  0.00    -0.196 N 
ATOM     48  CA  ALA A   7      -7.829  15.630  -7.181  1.00  0.00    +0.173 C 
ATOM     49  C   ALA A   7      -9.225  15.947  -6.670  1.00  0.00    +0.262 C 
ATOM     50  O   ALA A   7     -10.085  15.068  -6.620  1.00  0.00    -0.271 OA
ATOM     51  CB  ALA A   7      -7.082  14.814  -6.139  1.00  0.00    +0.033 C 
ATOM     52  N   LEU A   8      -9.451  17.200  -6.291  1.00  0.00    -0.196 N 
ATOM     53  CA  LEU A   8     -10.443  17.518  -5.268  1.00  0.00    +0.173 C 
ATOM     54  C   LEU A   8     -11.853  17.322  -5.802  1.00  0.00    +0.262 C 
ATOM     55  O   LEU A   8     -12.206  17.868  -6.846  1.00  0.00    -0.271 OA
ATOM     56  CB  LEU A   8     -10.279  18.950  -4.784  1.00  0.00    +0.031 C 
ATOM     57  CG  LEU A   8      -9.006  19.250  -3.991  1.00  0.00    +0.002 C 
ATOM     58  CD1 LEU A   8      -9.282  20.305  -2.927  1.00  0.00    +0.000 C 
ATOM     59  CD2 LEU A   8      -8.014  20.033  -4.844  1.00  0.00    +0.000 C 
ATOM     60  N   LEU A   9     -12.658  16.542  -5.086  1.00  0.00    -0.196 N 
ATOM     61  CA  LEU A   9     -14.103  16.755  -5.067  1.00  0.00    +0.173 C 
ATOM     62  C   LEU A   9     -14.467  17.920  -4.159  1.00  0.00    +0.262 C 
ATOM     63  O   LEU A   9     -13.976  18.011  -3.035  1.00  0.00    -0.271 OA
ATOM     64  CB  LEU A   9     -14.826  15.502  -4.601  1.00  0.00    +0.031 C 
ATOM     65  CG  LEU A   9     -14.707  14.279  -5.511  1.00  0.00    +0.002 C 
ATOM     66  CD1 LEU A   9     -15.114  13.018  -4.756  1.00  0.00    +0.000 C 
ATOM     67  CD2 LEU A   9     -13.241  13.937  -5.760  1.00  0.00    +0.000 C 
ATOM     68  N   VAL A  10     -15.328  18.809  -4.645  1.00  0.00    -0.196 N 
ATOM     69  CA  VAL A  10     -16.652  18.984  -4.056  1.00  0.00    +0.173 C 
ATOM     70  C   VAL A  10     -17.448  17.696  -4.185  1.00  0.00    +0.262 C 
ATOM     71  O   VAL A  10     -17.380  17.018  -5.211  1.00  0.00    -0.271 OA
ATOM     72  CB  VAL A  10     -17.418  20.122  -4.713  1.00  0.00    +0.029 C 
ATOM     73  CG1 VAL A  10     -18.465  20.689  -3.757  1.00  0.00    +0.002 C 
ATOM     74  CG2 VAL A  10     -16.467  21.252  -5.095  1.00  0.00    +0.002 C 
ATOM     75  N   PHE A  11     -18.204  17.354  -3.145  1.00  0.00    -0.196 N 
ATOM     76  CA  PHE A  11     -19.581  16.902  -3.322  1.00  0.00    +0.177 C 
ATOM     77  C   PHE A  11     -20.553  18.060  -3.167  1.00  0.00    +0.262 C 
ATOM     78  O   PHE A  11     -21.435  18.251  -4.001  1.00  0.00    -0.271 OA
ATOM     79  CB  PHE A  11     -19.926  15.812  -2.320  1.00  0.00    +0.057 C 
ATOM     80  CG  PHE A  11     -18.890  14.732  -2.218  1.00  0.00    -0.020 A 
ATOM     81  CD1 PHE A  11     -18.473  14.284  -0.970  1.00  0.00    -0.004 A 
ATOM     82  CE1 PHE A  11     -17.512  13.282  -0.877  1.00  0.00    -0.000 A 
ATOM     83  CD2 PHE A  11     -18.348  14.179  -3.372  1.00  0.00    -0.004 A 
ATOM     84  CE2 PHE A  11     -17.389  13.177  -3.279  1.00  0.00    -0.000 A 
ATOM     85  CZ  PHE A  11     -16.970  12.730  -2.031  1.00  0.00    -0.000 A 
ATOM     86  N   PHE A  12     -20.392  18.833  -2.097  1.00  0.00    -0.196 N 
ATOM     87  CA  PHE A  12     -21.498  19.617  -1.552  1.00  0.00    +0.177 C 
ATOM     88  C   PHE A  12     -21.155  21.097  -1.547  1.00  0.00    +0.262 C 
ATOM     89  O   PHE A  12     -20.168  21.508  -0.938  1.00  0.00    -0.271 OA
ATOM     90  CB  PHE A  12     -21.836  19.169  -0.139  1.00  0.00    +0.057 C 
ATOM     91  CG  PHE A  12     -22.460  17.807  -0.068  1.00  0.00    -0.020 A 
ATOM     92  CD1 PHE A  12     -23.720  17.590  -0.612  1.00  0.00    -0.004 A 
ATOM     93  CE1 PHE A  12     -24.299  16.329  -0.544  1.00  0.00    -0.000 A 
ATOM     94  CD2 PHE A  12     -21.777  16.761   0.543  1.00  0.00    -0.004 A 
ATOM     95  CE2 PHE A  12     -22.356  15.500   0.609  1.00  0.00    -0.000 A 
ATOM     96  CZ  PHE A  12     -23.616  15.283   0.066  1.00  0.00    -0.000 A 
ATOM     97  N   ALA A  13     -21.969  21.900  -2.228  1.00  0.00    -0.196 N 
ATOM     98  CA  ALA A  13     -22.707  22.972  -1.566  1.00  0.00    +0.173 C 
ATOM     99  C   ALA A  13     -23.586  22.427  -0.452  1.00  0.00    +0.261 C 
ATOM    100  O   ALA A  13     -23.715  23.048   0.602  1.00  0.00    -0.271 OA
ATOM    101  CB  ALA A  13     -23.566  23.731  -2.564  1.00  0.00    +0.033 C 
ATOM    102  N   GLY A  14     -24.190  21.265  -0.684  1.00  0.00    -0.196 N 
ATOM    103  CA  GLY A  14     -25.514  21.207  -1.295  1.00  0.00    +0.195 C 
ATOM    104  C   GLY A  14     -25.896  19.772  -1.621  1.00  0.00    +0.269 C 
ATOM    105  O   GLY A  14     -25.470  18.842  -0.939  1.00  0.00    -0.242 OA
ATOM    106  N   SER A  15     -26.705  19.592  -2.662  1.00  0.00    -0.165 NA
ATOM    107  CA  SER A  15     -27.943  18.828  -2.540  1.00  0.00    +0.184 C 
ATOM    108  C   SER A  15     -27.661  17.350  -2.329  1.00  0.00    +0.260 C 
ATOM    109  O   SER A  15     -26.720  16.804  -2.907  1.00  0.00    -0.272 OA
ATOM    110  CB  SER A  15     -28.807  19.007  -3.778  1.00  0.00    +0.169 C 
ATOM    111  OG  SER A  15     -28.430  20.173  -4.490  1.00  0.00    -0.355 OA
ATOM    112  N   SER A  16     -28.473  16.699  -1.501  1.00  0.00    -0.194 N 
ATOM    113  CA  SER A  16     -29.925  16.794  -1.629  1.00  0.00    +0.205 C 
ATOM    114  C   SER A  16     -30.435  18.137  -1.136  1.00  0.00    +0.264 C 
ATOM    115  O   SER A  16     -31.382  18.689  -1.694  1.00  0.00    -0.271 OA
ATOM    116  CB  SER A  16     -30.604  15.677  -0.854  1.00  0.00    +0.213 C 
ATOM    117  OG  SER A  16     -30.079  15.584   0.459  1.00  0.00    -0.218 OA
ATOM    118  N   ASP A  17     -29.808  18.663  -0.088  1.00  0.00    -0.196 N 
ATOM    119  CA  ASP A  17     -28.773  19.681  -0.256  1.00  0.00    +0.183 C 
ATOM    120  C   ASP A  17     -27.385  19.074  -0.119  1.00  0.00    +0.256 C 
ATOM    121  O   ASP A  17     -27.243  17.931   0.310  1.00  0.00    -0.272 OA
ATOM    122  CB  ASP A  17     -28.940  20.798   0.764  1.00  0.00    +0.145 C 
ATOM    123  CG  ASP A  17     -30.391  21.202   0.969  1.00  0.00    +0.367 C 
ATOM    124  OD1 ASP A  17     -31.285  20.626   0.312  1.00  0.00    -0.246 OA
ATOM    125  OD2 ASP A  17     -30.640  22.106   1.796  1.00  0.00    -0.246 OA
ATOM    126  N   ALA A  18     -26.362  19.841  -0.487  1.00  0.00    -0.195 NA
ATOM    127  CA  ALA A  18     -26.554  21.237  -0.867  1.00  0.00    +0.139 C 
ATOM    128  C   ALA A  18     -26.058  21.492  -2.280  1.00  0.00    +0.227 C 
ATOM    129  O   ALA A  18     -25.096  22.232  -2.480  1.00  0.00    -0.204 OA
ATOM    130  CB  ALA A  18     -25.834  22.163   0.099  1.00  0.00    +0.027 C 
ATOM    131  N   ILE A  19     -26.714  20.882  -3.264  1.00  0.00    -0.178 NA
ATOM    132  CA  ILE A  19     -26.702  21.406  -4.626  1.00  0.00    +0.177 C 
ATOM    133  C   ILE A  19     -27.657  22.584  -4.731  1.00  0.00    +0.260 C 
ATOM    134  O   ILE A  19     -28.869  22.422  -4.594  1.00  0.00    -0.272 OA
ATOM    135  CB  ILE A  19     -27.090  20.346  -5.645  1.00  0.00    +0.116 C 
ATOM    136  CG1 ILE A  19     -25.879  19.938  -6.483  1.00  0.00    +0.029 C 
ATOM    137  CG2 ILE A  19     -28.190  20.869  -6.566  1.00  0.00    +0.032 C 
ATOM    138  CD1 ILE A  19     -26.080  18.656  -7.273  1.00  0.00    +0.003 C 
ATOM    139  N   ARG A  20     -27.112  23.773  -4.975  1.00  0.00    -0.197 N 
ATOM    140  CA  ARG A  20     -27.601  24.626  -6.055  1.00  0.00    +0.173 C 
ATOM    141  C   ARG A  20     -26.447  25.202  -6.859  1.00  0.00    +0.262 C 
ATOM    142  O   ARG A  20     -25.295  25.137  -6.433  1.00  0.00    -0.271 OA
ATOM    143  CB  ARG A  20     -28.453  25.759  -5.506  1.00  0.00    +0.033 C 
ATOM    144  CG  ARG A  20     -29.686  25.290  -4.751  1.00  0.00    +0.029 C 
ATOM    145  CD  ARG A  20     -29.560  25.539  -3.257  1.00  0.00    +0.129 C 
ATOM    146  NE  ARG A  20     -28.789  24.487  -2.598  1.00  0.00    -0.234 NA
ATOM    147  CZ  ARG A  20     -27.523  24.606  -2.208  1.00  0.00    +0.284 C 
ATOM    148  NH1 ARG A  20     -26.796  25.658  -2.575  1.00  0.00    -0.104 N 
ATOM    149  NH2 ARG A  20     -26.980  23.663  -1.444  1.00  0.00    -0.104 N 
ATOM    150  N   ARG A  21     -26.755  25.767  -8.024  1.00  0.00    -0.194 N 
ATOM    151  CA  ARG A  21     -25.818  26.649  -8.712  1.00  0.00    +0.198 C 
ATOM    152  C   ARG A  21     -24.524  25.921  -9.038  1.00  0.00    +0.384 C 
ATOM    153  O   ARG A  21     -24.442  25.207 -10.035  1.00  0.00    -0.244 OA
ATOM    154  CB  ARG A  21     -25.512  27.878  -7.872  1.00  0.00    +0.035 C 
ATOM    155  CG  ARG A  21     -26.750  28.628  -7.408  1.00  0.00    +0.029 C 
ATOM    156  CD  ARG A  21     -26.405  30.011  -6.876  1.00  0.00    +0.129 C 
ATOM    157  NE  ARG A  21     -27.570  30.671  -6.295  1.00  0.00    -0.234 NA
ATOM    158  CZ  ARG A  21     -27.518  31.690  -5.442  1.00  0.00    +0.284 C 
ATOM    159  NH1 ARG A  21     -26.351  32.228  -5.100  1.00  0.00    -0.104 N 
ATOM    160  NH2 ARG A  21     -28.644  32.173  -4.926  1.00  0.00    -0.104 N 
ATOM    161  OXT ARG A  21     -23.540  26.039  -8.309  1.00  0.00    -0.244 OA
ATOM    162  H   MET A   1      -2.517   9.284  -1.815  1.00  0.00    +0.000 HD
ATOM    163  H   MET A   1      -3.434   9.937  -3.042  1.00  0.00    +0.000 HD
ATOM    164  H   LYS A   2      -4.499  12.712   0.159  1.00  0.00    +0.000 HD
ATOM    165  H   LYS A   2      -6.654  14.416   2.091  1.00  0.00    +0.000 HD
ATOM    166  H   GLN A   3      -3.611  14.616  -0.564  1.00  0.00    +0.000 HD
ATOM    167  H   GLN A   3      -0.467  15.525   3.333  1.00  0.00    +0.000 HD
ATOM    168  H   GLN A   3      -1.986  16.295   3.246  1.00  0.00    +0.000 HD
ATOM    169  H   ALA A   4      -4.030  14.853  -3.172  1.00  0.00    +0.000 HD
ATOM    170  H   VAL A   5      -3.054  16.680  -7.457  1.00  0.00    +0.000 HD
ATOM    171  H   ASN A   6      -4.411  17.420  -9.134  1.00  0.00    +0.000 HD
ATOM    172  H   ASN A   6      -4.072  16.968 -13.046  1.00  0.00    +0.000 HD
ATOM    173  H   ASN A   6      -4.586  15.815 -11.901  1.00  0.00    +0.000 HD
ATOM    174  H   ALA A   7      -6.306  17.096  -6.972  1.00  0.00    +0.000 HD
ATOM    175  H   LEU A   8      -8.940  17.930  -6.708  1.00  0.00    +0.000 HD
ATOM    176  H   LEU A   9     -12.272  15.806  -4.559  1.00  0.00    +0.000 HD
ATOM    177  H   VAL A  10     -15.068  19.360  -5.418  1.00  0.00    +0.000 HD
ATOM    178  H   PHE A  11     -17.827  17.407  -2.237  1.00  0.00    +0.000 HD
ATOM    179  H   PHE A  12     -19.509  18.879  -1.664  1.00  0.00    +0.000 HD
ATOM    180  H   ALA A  13     -22.077  21.768  -3.197  1.00  0.00    +0.000 HD
ATOM    181  H   GLY A  14     -23.735  20.428  -0.438  1.00  0.00    +0.000 HD
ATOM    182  H   SER A  16     -28.087  16.142  -0.786  1.00  0.00    +0.000 HD
ATOM    183  H   SER A  16     -29.129  15.390   0.414  1.00  0.00    +0.000 HD
ATOM    184  H   ASP A  17     -30.046  18.362   0.819  1.00  0.00    +0.000 HD
ATOM    185  H   ASP A  17     -31.056  19.953  -0.298  1.00  0.00    +0.000 HD
ATOM    186  H   ALA A  18     -24.767  22.571  -1.633  1.00  0.00    +0.000 HD
ATOM    187  H   ARG A  20     -26.363  24.084  -4.416  1.00  0.00    +0.000 HD
ATOM    188  H   ARG A  20     -25.860  25.736  -2.280  1.00  0.00    +0.000 HD
ATOM    189  H   ARG A  20     -27.194  26.358  -3.140  1.00  0.00    +0.000 HD
ATOM    190  H   ARG A  20     -26.044  23.745  -1.152  1.00  0.00    +0.000 HD
ATOM    191  H   ARG A  20     -27.514  22.882  -1.170  1.00  0.00    +0.000 HD
ATOM    192  H   ARG A  21     -27.634  25.586  -8.429  1.00  0.00    +0.000 HD
ATOM    193  H   ARG A  21     -25.182  25.106 -10.601  1.00  0.00    +0.000 HD
ATOM    194  H   ARG A  21     -26.323  32.982  -4.468  1.00  0.00    +0.000 HD
ATOM    195  H   ARG A  21     -25.515  31.873  -5.480  1.00  0.00    +0.000 HD
ATOM    196  H   ARG A  21     -28.613  32.927  -4.295  1.00  0.00    +0.000 HD
ATOM    197  H   ARG A  21     -29.509  31.777  -5.177  1.00  0.00    +0.000 HD
ENDROOT
TORSDOF 0
