REMARK  Name = /var/folders/yp/yjbh3p597675h2qddgqr02y00000gn/T/tmp7_k35rsp.pdb
REMARK     285 UNITARY VALUES FOR THE UNIT CELL AUTOMATICALLY SET
REMARK     285 BY MDANALYSIS PDBWRITER BECAUSE UNIT CELL INFORMATION
REMARK     285 WAS MISSING.
REMARK     285 PROTEIN DATA BANK CONVENTIONS REQUIRE THAT
REMARK     285 CRYST1 RECORD IS INCLUDED, BUT THE VALUES ON
REMARK     285 THIS RECORD ARE MEANINGLESS.
REMARK     285 UNITARY VALUES FOR THE UNIT CELL AUTOMATICALLY SET
REMARK     285 BY MDANALYSIS PDBWRITER BECAUSE UNIT CELL INFORMATION
REMARK     285 WAS MISSING.
REMARK     285 PROTEIN DATA BANK CONVENTIONS REQUIRE THAT
REMARK     285 CRYST1 RECORD IS INCLUDED, BUT THE VALUES ON
REMARK     285 THIS RECORD ARE MEANINGLESS.
REMARK                            x       y       z     vdW  Elec       q    Type
REMARK                         _______ _______ _______ _____ _____    ______ ____
ROOT
ATOM      1  N   MET A   1      13.991  20.096 -12.569  1.00  0.00    -0.123 NA
ATOM      2  CA  MET A   1      14.256  18.716 -12.967  1.00  0.00    +0.170 C 
ATOM      3  C   MET A   1      12.990  18.042 -13.468  1.00  0.00    +0.259 C 
ATOM      4  O   MET A   1      11.922  18.199 -12.877  1.00  0.00    -0.272 OA
ATOM      5  CB  MET A   1      14.829  17.918 -11.806  1.00  0.00    +0.040 C 
ATOM      6  CG  MET A   1      15.725  16.769 -12.239  1.00  0.00    +0.060 C 
ATOM      7  SD  MET A   1      16.649  16.046 -10.862  1.00  0.00    -0.139 S 
ATOM      8  CE  MET A   1      16.192  17.160  -9.538  1.00  0.00    +0.069 C 
ATOM      9  N   LYS A   2      13.106  17.292 -14.560  1.00  0.00    -0.197 N 
ATOM     10  CA  LYS A   2      12.099  17.325 -15.616  1.00  0.00    +0.173 C 
ATOM     11  C   LYS A   2      10.871  16.517 -15.227  1.00  0.00    +0.262 C 
ATOM     12  O   LYS A   2       9.821  16.636 -15.856  1.00  0.00    -0.271 OA
ATOM     13  CB  LYS A   2      12.664  16.790 -16.922  1.00  0.00    +0.031 C 
ATOM     14  CG  LYS A   2      13.289  17.858 -17.804  1.00  0.00    +0.009 C 
ATOM     15  CD  LYS A   2      13.849  17.272 -19.089  1.00  0.00    +0.049 C 
ATOM     16  CE  LYS A   2      15.292  17.471 -19.189  1.00  0.00    +0.096 C 
ATOM     17  NZ  LYS A   2      16.010  17.277 -20.292  1.00  0.00    -0.151 NA
ATOM     18  N   GLN A   3      11.002  15.697 -14.189  1.00  0.00    -0.196 N 
ATOM     19  CA  GLN A   3      10.127  14.539 -14.019  1.00  0.00    +0.173 C 
ATOM     20  C   GLN A   3       8.728  14.966 -13.606  1.00  0.00    +0.262 C 
ATOM     21  O   GLN A   3       7.784  14.183 -13.697  1.00  0.00    -0.271 OA
ATOM     22  CB  GLN A   3      10.692  13.580 -12.984  1.00  0.00    +0.041 C 
ATOM     23  CG  GLN A   3      11.798  12.685 -13.517  1.00  0.00    +0.091 C 
ATOM     24  CD  GLN A   3      11.268  11.523 -14.341  1.00  0.00    +0.261 C 
ATOM     25  OE1 GLN A   3      10.765  11.711 -15.458  1.00  0.00    -0.272 OA
ATOM     26  NE2 GLN A   3      11.377  10.313 -13.798  1.00  0.00    -0.088 N 
ATOM     27  N   ALA A   4       8.594  16.207 -13.148  1.00  0.00    -0.196 N 
ATOM     28  CA  ALA A   4       7.312  16.701 -12.653  1.00  0.00    +0.173 C 
ATOM     29  C   ALA A   4       6.300  16.818 -13.781  1.00  0.00    +0.262 C 
ATOM     30  O   ALA A   4       5.355  17.601 -13.695  1.00  0.00    -0.271 OA
ATOM     31  CB  ALA A   4       7.479  18.053 -11.979  1.00  0.00    +0.033 C 
ATOM     32  N   VAL A   5       6.493  16.036 -14.839  1.00  0.00    -0.196 N 
ATOM     33  CA  VAL A   5       6.129  16.475 -16.184  1.00  0.00    +0.173 C 
ATOM     34  C   VAL A   5       4.616  16.541 -16.311  1.00  0.00    +0.262 C 
ATOM     35  O   VAL A   5       4.090  17.299 -17.125  1.00  0.00    -0.271 OA
ATOM     36  CB  VAL A   5       6.688  15.550 -17.254  1.00  0.00    +0.029 C 
ATOM     37  CG1 VAL A   5       5.865  15.648 -18.535  1.00  0.00    +0.002 C 
ATOM     38  CG2 VAL A   5       8.129  15.932 -17.587  1.00  0.00    +0.002 C 
ATOM     39  N   ASN A   6       3.915  15.746 -15.507  1.00  0.00    -0.196 N 
ATOM     40  CA  ASN A   6       3.388  14.466 -15.972  1.00  0.00    +0.182 C 
ATOM     41  C   ASN A   6       2.172  14.656 -16.864  1.00  0.00    +0.262 C 
ATOM     42  O   ASN A   6       1.795  13.751 -17.607  1.00  0.00    -0.271 OA
ATOM     43  CB  ASN A   6       3.024  13.569 -14.800  1.00  0.00    +0.120 C 
ATOM     44  CG  ASN A   6       2.899  14.336 -13.494  1.00  0.00    +0.263 C 
ATOM     45  OD1 ASN A   6       2.963  15.564 -13.474  1.00  0.00    -0.272 OA
ATOM     46  ND2 ASN A   6       2.718  13.609 -12.394  1.00  0.00    -0.088 N 
ATOM     47  N   ALA A   7       1.555  15.833 -16.790  1.00  0.00    -0.196 N 
ATOM     48  CA  ALA A   7       0.179  15.943 -16.317  1.00  0.00    +0.173 C 
ATOM     49  C   ALA A   7      -0.802  15.475 -17.379  1.00  0.00    +0.261 C 
ATOM     50  O   ALA A   7      -2.014  15.518 -17.170  1.00  0.00    -0.271 OA
ATOM     51  CB  ALA A   7      -0.144  17.376 -15.924  1.00  0.00    +0.033 C 
ATOM     52  N   LEU A   8      -0.281  15.027 -18.518  1.00  0.00    -0.202 N 
ATOM     53  CA  LEU A   8      -1.110  14.812 -19.701  1.00  0.00    +0.139 C 
ATOM     54  C   LEU A   8      -1.965  13.566 -19.542  1.00  0.00    +0.210 C 
ATOM     55  O   LEU A   8      -1.468  12.515 -19.138  1.00  0.00    -0.338 OA
ATOM     56  CB  LEU A   8      -0.248  14.681 -20.945  1.00  0.00    +0.026 C 
ATOM     57  CG  LEU A   8       0.401  15.970 -21.453  1.00  0.00    +0.002 C 
ATOM     58  CD1 LEU A   8      -0.649  17.064 -21.609  1.00  0.00    +0.000 C 
ATOM     59  CD2 LEU A   8       0.806  15.827 -22.917  1.00  0.00    +0.000 C 
ATOM     60  N   LEU A   9      -3.252  13.681 -19.861  1.00  0.00    -0.183 NA
ATOM     61  CA  LEU A   9      -3.977  12.588 -20.502  1.00  0.00    +0.153 C 
ATOM     62  C   LEU A   9      -4.613  13.050 -21.803  1.00  0.00    +0.258 C 
ATOM     63  O   LEU A   9      -5.275  14.086 -21.842  1.00  0.00    -0.272 OA
ATOM     64  CB  LEU A   9      -5.052  12.040 -19.578  1.00  0.00    +0.027 C 
ATOM     65  CG  LEU A   9      -4.583  11.045 -18.515  1.00  0.00    +0.002 C 
ATOM     66  CD1 LEU A   9      -5.607  10.950 -17.391  1.00  0.00    +0.000 C 
ATOM     67  CD2 LEU A   9      -3.417  11.621 -17.718  1.00  0.00    +0.004 C 
ATOM     68  N   VAL A  10      -4.415  12.281 -22.869  1.00  0.00    -0.197 N 
ATOM     69  CA  VAL A  10      -5.510  11.543 -23.491  1.00  0.00    +0.173 C 
ATOM     70  C   VAL A  10      -5.534  10.119 -22.965  1.00  0.00    +0.262 C 
ATOM     71  O   VAL A  10      -6.601   9.534 -22.787  1.00  0.00    -0.271 OA
ATOM     72  CB  VAL A  10      -5.393  11.523 -25.006  1.00  0.00    +0.029 C 
ATOM     73  CG1 VAL A  10      -5.893  12.837 -25.604  1.00  0.00    +0.002 C 
ATOM     74  CG2 VAL A  10      -3.936  11.340 -25.425  1.00  0.00    +0.002 C 
ATOM     75  N   PHE A  11      -4.355   9.555 -22.716  1.00  0.00    -0.196 N 
ATOM     76  CA  PHE A  11      -4.115   8.142 -22.988  1.00  0.00    +0.177 C 
ATOM     77  C   PHE A  11      -4.409   7.298 -21.756  1.00  0.00    +0.262 C 
ATOM     78  O   PHE A  11      -4.759   6.125 -21.872  1.00  0.00    -0.271 OA
ATOM     79  CB  PHE A  11      -2.680   7.909 -23.432  1.00  0.00    +0.057 C 
ATOM     80  CG  PHE A  11      -2.233   8.819 -24.536  1.00  0.00    -0.020 A 
ATOM     81  CD1 PHE A  11      -1.833  10.119 -24.247  1.00  0.00    -0.004 A 
ATOM     82  CE1 PHE A  11      -1.418  10.962 -25.271  1.00  0.00    -0.000 A 
ATOM     83  CD2 PHE A  11      -2.216   8.362 -25.850  1.00  0.00    -0.004 A 
ATOM     84  CE2 PHE A  11      -1.800   9.206 -26.873  1.00  0.00    -0.000 A 
ATOM     85  CZ  PHE A  11      -1.401  10.506 -26.584  1.00  0.00    -0.000 A 
ATOM     86  N   PHE A  12      -4.266   7.896 -20.578  1.00  0.00    -0.196 N 
ATOM     87  CA  PHE A  12      -3.164   7.560 -19.683  1.00  0.00    +0.177 C 
ATOM     88  C   PHE A  12      -3.208   6.089 -19.301  1.00  0.00    +0.262 C 
ATOM     89  O   PHE A  12      -4.286   5.522 -19.131  1.00  0.00    -0.271 OA
ATOM     90  CB  PHE A  12      -3.206   8.412 -18.425  1.00  0.00    +0.053 C 
ATOM     91  CG  PHE A  12      -2.411   9.679 -18.524  1.00  0.00    -0.046 C 
ATOM     92  CD1 PHE A  12      -1.192   9.685 -19.192  1.00  0.00    -0.032 C 
ATOM     93  CE1 PHE A  12      -0.454  10.860 -19.284  1.00  0.00    +0.057 C 
ATOM     94  CD2 PHE A  12      -2.892  10.850 -17.949  1.00  0.00    +0.022 C 
ATOM     95  CE2 PHE A  12      -2.156  12.025 -18.042  1.00  0.00    +0.000 C 
ATOM     96  CZ  PHE A  12      -0.937  12.030 -18.709  1.00  0.00    +0.149 C 
ATOM     97  N   ALA A  13      -2.038   5.470 -19.167  1.00  0.00    -0.196 N 
ATOM     98  CA  ALA A  13      -1.772   4.582 -18.040  1.00  0.00    +0.173 C 
ATOM     99  C   ALA A  13      -1.782   5.349 -16.726  1.00  0.00    +0.262 C 
ATOM    100  O   ALA A  13      -0.754   5.879 -16.306  1.00  0.00    -0.271 OA
ATOM    101  CB  ALA A  13      -0.434   3.881 -18.208  1.00  0.00    +0.033 C 
ATOM    102  N   GLY A  14      -2.940   5.407 -16.078  1.00  0.00    -0.194 N 
ATOM    103  CA  GLY A  14      -3.270   6.533 -15.208  1.00  0.00    +0.201 C 
ATOM    104  C   GLY A  14      -2.500   6.452 -13.901  1.00  0.00    +0.264 C 
ATOM    105  O   GLY A  14      -1.640   5.587 -13.734  1.00  0.00    -0.271 OA
ATOM    106  N   SER A  15      -2.807   7.353 -12.972  1.00  0.00    -0.194 N 
ATOM    107  CA  SER A  15      -2.154   7.349 -11.666  1.00  0.00    +0.205 C 
ATOM    108  C   SER A  15      -2.588   6.152 -10.835  1.00  0.00    +0.264 C 
ATOM    109  O   SER A  15      -3.674   5.611 -11.039  1.00  0.00    -0.271 OA
ATOM    110  CB  SER A  15      -2.463   8.630 -10.908  1.00  0.00    +0.213 C 
ATOM    111  OG  SER A  15      -3.829   8.677 -10.534  1.00  0.00    -0.218 OA
ATOM    112  N   SER A  16      -1.741   5.737  -9.898  1.00  0.00    -0.194 N 
ATOM    113  CA  SER A  16      -2.217   5.187  -8.633  1.00  0.00    +0.205 C 
ATOM    114  C   SER A  16      -2.834   6.267  -7.758  1.00  0.00    +0.264 C 
ATOM    115  O   SER A  16      -3.772   6.004  -7.009  1.00  0.00    -0.271 OA
ATOM    116  CB  SER A  16      -1.083   4.511  -7.880  1.00  0.00    +0.213 C 
ATOM    117  OG  SER A  16      -0.040   5.432  -7.608  1.00  0.00    -0.218 OA
ATOM    118  N   ASP A  17      -2.306   7.485  -7.853  1.00  0.00    -0.196 N 
ATOM    119  CA  ASP A  17      -1.872   8.219  -6.669  1.00  0.00    +0.184 C 
ATOM    120  C   ASP A  17      -2.867   9.312  -6.311  1.00  0.00    +0.262 C 
ATOM    121  O   ASP A  17      -4.070   9.148  -6.503  1.00  0.00    -0.271 OA
ATOM    122  CB  ASP A  17      -0.499   8.833  -6.883  1.00  0.00    +0.145 C 
ATOM    123  CG  ASP A  17       0.617   8.047  -6.214  1.00  0.00    +0.367 C 
ATOM    124  OD1 ASP A  17       0.526   6.803  -6.140  1.00  0.00    -0.246 OA
ATOM    125  OD2 ASP A  17       1.594   8.679  -5.759  1.00  0.00    -0.246 OA
ATOM    126  N   ALA A  18      -2.364  10.428  -5.789  1.00  0.00    -0.196 N 
ATOM    127  CA  ALA A  18      -2.333  10.645  -4.345  1.00  0.00    +0.173 C 
ATOM    128  C   ALA A  18      -3.227  11.808  -3.948  1.00  0.00    +0.262 C 
ATOM    129  O   ALA A  18      -3.002  12.941  -4.371  1.00  0.00    -0.271 OA
ATOM    130  CB  ALA A  18      -0.913  10.909  -3.870  1.00  0.00    +0.033 C 
ATOM    131  N   ILE A  19      -4.242  11.531  -3.134  1.00  0.00    -0.196 N 
ATOM    132  CA  ILE A  19      -4.948  12.584  -2.411  1.00  0.00    +0.173 C 
ATOM    133  C   ILE A  19      -4.358  12.733  -1.018  1.00  0.00    +0.262 C 
ATOM    134  O   ILE A  19      -4.711  11.985  -0.108  1.00  0.00    -0.271 OA
ATOM    135  CB  ILE A  19      -6.437  12.302  -2.307  1.00  0.00    +0.029 C 
ATOM    136  CG1 ILE A  19      -7.070  12.226  -3.694  1.00  0.00    +0.002 C 
ATOM    137  CG2 ILE A  19      -7.129  13.390  -1.492  1.00  0.00    +0.002 C 
ATOM    138  CD1 ILE A  19      -8.590  12.184  -3.678  1.00  0.00    +0.000 C 
ATOM    139  N   ARG A  20      -3.461  13.700  -0.850  1.00  0.00    -0.196 N 
ATOM    140  CA  ARG A  20      -3.648  14.746   0.150  1.00  0.00    +0.173 C 
ATOM    141  C   ARG A  20      -4.753  15.705  -0.266  1.00  0.00    +0.262 C 
ATOM    142  O   ARG A  20      -5.663  15.986   0.512  1.00  0.00    -0.271 OA
ATOM    143  CB  ARG A  20      -2.361  15.521   0.373  1.00  0.00    +0.033 C 
ATOM    144  CG  ARG A  20      -2.426  16.501   1.534  1.00  0.00    +0.029 C 
ATOM    145  CD  ARG A  20      -1.093  17.192   1.765  1.00  0.00    +0.129 C 
ATOM    146  NE  ARG A  20      -1.166  18.150   2.864  1.00  0.00    -0.234 NA
ATOM    147  CZ  ARG A  20      -0.463  19.277   2.934  1.00  0.00    +0.284 C 
ATOM    148  NH1 ARG A  20       0.515  19.523   2.066  1.00  0.00    -0.104 N 
ATOM    149  NH2 ARG A  20      -0.741  20.168   3.882  1.00  0.00    -0.104 N 
ATOM    150  N   ARG A  21      -4.672  16.210  -1.494  1.00  0.00    -0.194 N 
ATOM    151  CA  ARG A  21      -5.331  17.465  -1.845  1.00  0.00    +0.198 C 
ATOM    152  C   ARG A  21      -6.713  17.212  -2.424  1.00  0.00    +0.384 C 
ATOM    153  O   ARG A  21      -7.153  16.066  -2.512  1.00  0.00    -0.244 OA
ATOM    154  CB  ARG A  21      -4.499  18.254  -2.844  1.00  0.00    +0.035 C 
ATOM    155  CG  ARG A  21      -4.570  17.716  -4.263  1.00  0.00    +0.029 C 
ATOM    156  CD  ARG A  21      -3.410  18.209  -5.112  1.00  0.00    +0.129 C 
ATOM    157  NE  ARG A  21      -3.662  19.544  -5.646  1.00  0.00    -0.234 NA
ATOM    158  CZ  ARG A  21      -3.543  19.883  -6.927  1.00  0.00    +0.284 C 
ATOM    159  NH1 ARG A  21      -3.105  19.004  -7.823  1.00  0.00    -0.104 N 
ATOM    160  NH2 ARG A  21      -3.868  21.113  -7.314  1.00  0.00    -0.104 N 
ATOM    161  OXT ARG A  21      -7.410  18.148  -2.812  1.00  0.00    -0.244 OA
ATOM    162  H   MET A   1      14.855  20.525 -12.236  1.00  0.00    +0.000 HD
ATOM    163  H   MET A   1      13.296  20.106 -11.821  1.00  0.00    +0.000 HD
ATOM    164  H   LYS A   2      13.888  16.702 -14.659  1.00  0.00    +0.000 HD
ATOM    165  H   LYS A   2      15.569  16.977 -21.119  1.00  0.00    +0.000 HD
ATOM    166  H   GLN A   3      11.704  15.873 -13.521  1.00  0.00    +0.000 HD
ATOM    167  H   GLN A   3      11.783  10.207 -12.908  1.00  0.00    +0.000 HD
ATOM    168  H   GLN A   3      11.051   9.523 -14.288  1.00  0.00    +0.000 HD
ATOM    169  H   ALA A   4       9.376  16.805 -13.142  1.00  0.00    +0.000 HD
ATOM    170  H   VAL A   5       6.890  15.144 -14.714  1.00  0.00    +0.000 HD
ATOM    171  H   ASN A   6       3.747  16.027 -14.578  1.00  0.00    +0.000 HD
ATOM    172  H   ASN A   6       2.631  14.053 -11.520  1.00  0.00    +0.000 HD
ATOM    173  H   ASN A   6       2.672  12.628 -12.455  1.00  0.00    +0.000 HD
ATOM    174  H   ALA A   7       2.038  16.647 -17.060  1.00  0.00    +0.000 HD
ATOM    175  H   LEU A   8       0.684  14.838 -18.564  1.00  0.00    +0.000 HD
ATOM    176  H   LEU A   9      -3.323  14.481 -20.489  1.00  0.00    +0.000 HD
ATOM    177  H   VAL A  10      -3.509  12.209 -23.248  1.00  0.00    +0.000 HD
ATOM    178  H   PHE A  11      -3.629  10.103 -22.341  1.00  0.00    +0.000 HD
ATOM    179  H   PHE A  12      -4.919   8.580 -20.303  1.00  0.00    +0.000 HD
ATOM    180  H   ALA A  13      -1.337   5.615 -19.843  1.00  0.00    +0.000 HD
ATOM    181  H   GLY A  14      -3.590   4.676 -16.186  1.00  0.00    +0.000 HD
ATOM    182  H   SER A  15      -3.488   8.036 -13.169  1.00  0.00    +0.000 HD
ATOM    183  H   SER A  15      -4.384   8.652 -11.330  1.00  0.00    +0.000 HD
ATOM    184  H   SER A  16      -0.773   5.803 -10.061  1.00  0.00    +0.000 HD
ATOM    185  H   SER A  16      -0.382   6.154  -7.059  1.00  0.00    +0.000 HD
ATOM    186  H   ASP A  17      -2.206   7.899  -8.741  1.00  0.00    +0.000 HD
ATOM    187  H   ASP A  17      -0.224   6.366  -6.494  1.00  0.00    +0.000 HD
ATOM    188  H   ALA A  18      -2.005  11.121  -6.388  1.00  0.00    +0.000 HD
ATOM    189  H   ILE A  19      -4.523  10.595  -3.016  1.00  0.00    +0.000 HD
ATOM    190  H   ARG A  20      -2.653  13.710  -1.412  1.00  0.00    +0.000 HD
ATOM    191  H   ARG A  20       1.028  20.361   2.127  1.00  0.00    +0.000 HD
ATOM    192  H   ARG A  20       0.724  18.867   1.363  1.00  0.00    +0.000 HD
ATOM    193  H   ARG A  20      -0.225  21.004   3.940  1.00  0.00    +0.000 HD
ATOM    194  H   ARG A  20      -1.464  19.992   4.527  1.00  0.00    +0.000 HD
ATOM    195  H   ARG A  21      -4.158  15.727  -2.181  1.00  0.00    +0.000 HD
ATOM    196  H   ARG A  21      -6.635  15.341  -2.221  1.00  0.00    +0.000 HD
ATOM    197  H   ARG A  21      -3.021  19.265  -8.769  1.00  0.00    +0.000 HD
ATOM    198  H   ARG A  21      -2.865  18.091  -7.541  1.00  0.00    +0.000 HD
ATOM    199  H   ARG A  21      -3.783  21.369  -8.261  1.00  0.00    +0.000 HD
ATOM    200  H   ARG A  21      -4.195  21.767  -6.654  1.00  0.00    +0.000 HD
ENDROOT
TORSDOF 0
