REMARK  Name = /var/folders/yp/yjbh3p597675h2qddgqr02y00000gn/T/tmpgp3iytna.pdb
REMARK     285 UNITARY VALUES FOR THE UNIT CELL AUTOMATICALLY SET
REMARK     285 BY MDANALYSIS PDBWRITER BECAUSE UNIT CELL INFORMATION
REMARK     285 WAS MISSING.
REMARK     285 PROTEIN DATA BANK CONVENTIONS REQUIRE THAT
REMARK     285 CRYST1 RECORD IS INCLUDED, BUT THE VALUES ON
REMARK     285 THIS RECORD ARE MEANINGLESS.
REMARK     285 UNITARY VALUES FOR THE UNIT CELL AUTOMATICALLY SET
REMARK     285 BY MDANALYSIS PDBWRITER BECAUSE UNIT CELL INFORMATION
REMARK     285 WAS MISSING.
REMARK     285 PROTEIN DATA BANK CONVENTIONS REQUIRE THAT
REMARK     285 CRYST1 RECORD IS INCLUDED, BUT THE VALUES ON
REMARK     285 THIS RECORD ARE MEANINGLESS.
REMARK                            x       y       z     vdW  Elec       q    Type
REMARK                         _______ _______ _______ _____ _____    ______ ____
ROOT
ATOM      1  N   MET A   1      13.444   8.703  -3.944  1.00  0.00    -0.123 NA
ATOM      2  CA  MET A   1      14.084   9.959  -4.325  1.00  0.00    +0.170 C 
ATOM      3  C   MET A   1      15.329   9.702  -5.160  1.00  0.00    +0.259 C 
ATOM      4  O   MET A   1      16.195  10.568  -5.272  1.00  0.00    -0.272 OA
ATOM      5  CB  MET A   1      14.457  10.771  -3.096  1.00  0.00    +0.040 C 
ATOM      6  CG  MET A   1      13.801  12.142  -3.049  1.00  0.00    +0.060 C 
ATOM      7  SD  MET A   1      14.363  13.137  -1.645  1.00  0.00    -0.139 S 
ATOM      8  CE  MET A   1      13.244  14.528  -1.758  1.00  0.00    +0.069 C 
ATOM      9  N   LYS A   2      15.417   8.513  -5.746  1.00  0.00    -0.197 N 
ATOM     10  CA  LYS A   2      16.561   8.163  -6.585  1.00  0.00    +0.173 C 
ATOM     11  C   LYS A   2      16.297   8.509  -8.042  1.00  0.00    +0.262 C 
ATOM     12  O   LYS A   2      17.082   8.152  -8.920  1.00  0.00    -0.271 OA
ATOM     13  CB  LYS A   2      16.885   6.681  -6.466  1.00  0.00    +0.031 C 
ATOM     14  CG  LYS A   2      18.373   6.383  -6.386  1.00  0.00    +0.009 C 
ATOM     15  CD  LYS A   2      18.834   6.198  -4.950  1.00  0.00    +0.049 C 
ATOM     16  CE  LYS A   2      17.851   6.701  -3.997  1.00  0.00    +0.096 C 
ATOM     17  NZ  LYS A   2      16.550   6.427  -4.032  1.00  0.00    -0.151 NA
ATOM     18  N   GLN A   3      15.191   9.202  -8.299  1.00  0.00    -0.196 N 
ATOM     19  CA  GLN A   3      14.887   9.672  -9.647  1.00  0.00    +0.173 C 
ATOM     20  C   GLN A   3      15.012  11.184  -9.741  1.00  0.00    +0.262 C 
ATOM     21  O   GLN A   3      15.248  11.725 -10.820  1.00  0.00    -0.271 OA
ATOM     22  CB  GLN A   3      13.485   9.252 -10.063  1.00  0.00    +0.041 C 
ATOM     23  CG  GLN A   3      13.349   7.764 -10.341  1.00  0.00    +0.091 C 
ATOM     24  CD  GLN A   3      12.379   7.075  -9.396  1.00  0.00    +0.261 C 
ATOM     25  OE1 GLN A   3      12.671   6.896  -8.204  1.00  0.00    -0.272 OA
ATOM     26  NE2 GLN A   3      11.220   6.683  -9.916  1.00  0.00    -0.088 N 
ATOM     27  N   ALA A   4      14.856  11.866  -8.611  1.00  0.00    -0.196 N 
ATOM     28  CA  ALA A   4      14.523  13.288  -8.621  1.00  0.00    +0.173 C 
ATOM     29  C   ALA A   4      15.776  14.142  -8.720  1.00  0.00    +0.262 C 
ATOM     30  O   ALA A   4      16.837  13.755  -8.231  1.00  0.00    -0.271 OA
ATOM     31  CB  ALA A   4      13.746  13.669  -7.371  1.00  0.00    +0.033 C 
ATOM     32  N   VAL A   5      15.656  15.305  -9.353  1.00  0.00    -0.196 N 
ATOM     33  CA  VAL A   5      16.440  16.471  -8.956  1.00  0.00    +0.173 C 
ATOM     34  C   VAL A   5      16.152  16.815  -7.503  1.00  0.00    +0.262 C 
ATOM     35  O   VAL A   5      15.047  17.240  -7.171  1.00  0.00    -0.271 OA
ATOM     36  CB  VAL A   5      16.147  17.678  -9.830  1.00  0.00    +0.029 C 
ATOM     37  CG1 VAL A   5      17.184  18.775  -9.605  1.00  0.00    +0.002 C 
ATOM     38  CG2 VAL A   5      16.187  17.288 -11.307  1.00  0.00    +0.002 C 
ATOM     39  N   ASN A   6      17.146  16.632  -6.639  1.00  0.00    -0.196 N 
ATOM     40  CA  ASN A   6      17.299  17.487  -5.465  1.00  0.00    +0.182 C 
ATOM     41  C   ASN A   6      17.847  18.855  -5.840  1.00  0.00    +0.262 C 
ATOM     42  O   ASN A   6      17.832  19.777  -5.026  1.00  0.00    -0.271 OA
ATOM     43  CB  ASN A   6      18.210  16.840  -4.436  1.00  0.00    +0.120 C 
ATOM     44  CG  ASN A   6      19.332  16.036  -5.071  1.00  0.00    +0.263 C 
ATOM     45  OD1 ASN A   6      19.099  15.225  -5.966  1.00  0.00    -0.272 OA
ATOM     46  ND2 ASN A   6      20.558  16.259  -4.606  1.00  0.00    -0.088 N 
ATOM     47  N   ALA A   7      18.330  18.987  -7.072  1.00  0.00    -0.196 N 
ATOM     48  CA  ALA A   7      19.166  20.126  -7.443  1.00  0.00    +0.173 C 
ATOM     49  C   ALA A   7      18.354  21.410  -7.480  1.00  0.00    +0.262 C 
ATOM     50  O   ALA A   7      18.913  22.499  -7.604  1.00  0.00    -0.271 OA
ATOM     51  CB  ALA A   7      19.816  19.897  -8.798  1.00  0.00    +0.033 C 
ATOM     52  N   LEU A   8      17.034  21.284  -7.376  1.00  0.00    -0.196 N 
ATOM     53  CA  LEU A   8      16.313  21.778  -6.205  1.00  0.00    +0.175 C 
ATOM     54  C   LEU A   8      15.690  20.627  -5.430  1.00  0.00    +0.262 C 
ATOM     55  O   LEU A   8      14.977  19.804  -6.001  1.00  0.00    -0.271 OA
ATOM     56  CB  LEU A   8      15.228  22.760  -6.616  1.00  0.00    +0.056 C 
ATOM     57  CG  LEU A   8      15.696  23.995  -7.388  1.00  0.00    +0.010 C 
ATOM     58  CD1 LEU A   8      14.503  24.865  -7.764  1.00  0.00    +0.007 C 
ATOM     59  CD2 LEU A   8      16.155  23.609  -8.789  1.00  0.00    +0.001 C 
ATOM     60  N   LEU A   9      15.958  20.571  -4.129  1.00  0.00    -0.196 N 
ATOM     61  CA  LEU A   9      14.984  21.006  -3.132  1.00  0.00    +0.173 C 
ATOM     62  C   LEU A   9      14.761  22.508  -3.212  1.00  0.00    +0.262 C 
ATOM     63  O   LEU A   9      15.707  23.287  -3.098  1.00  0.00    -0.271 OA
ATOM     64  CB  LEU A   9      15.444  20.635  -1.732  1.00  0.00    +0.031 C 
ATOM     65  CG  LEU A   9      15.764  19.158  -1.499  1.00  0.00    +0.002 C 
ATOM     66  CD1 LEU A   9      15.708  18.834  -0.010  1.00  0.00    +0.000 C 
ATOM     67  CD2 LEU A   9      17.246  18.885  -1.739  1.00  0.00    +0.000 C 
ATOM     68  N   VAL A  10      13.510  22.917  -3.406  1.00  0.00    -0.196 N 
ATOM     69  CA  VAL A  10      12.699  22.385  -4.496  1.00  0.00    +0.173 C 
ATOM     70  C   VAL A  10      13.247  22.869  -5.830  1.00  0.00    +0.262 C 
ATOM     71  O   VAL A  10      13.239  22.130  -6.814  1.00  0.00    -0.271 OA
ATOM     72  CB  VAL A  10      11.240  22.794  -4.368  1.00  0.00    +0.029 C 
ATOM     73  CG1 VAL A  10      10.519  22.644  -5.705  1.00  0.00    +0.002 C 
ATOM     74  CG2 VAL A  10      10.527  21.913  -3.347  1.00  0.00    +0.002 C 
ATOM     75  N   PHE A  11      13.724  24.110  -5.863  1.00  0.00    -0.198 N 
ATOM     76  CA  PHE A  11      15.160  24.370  -5.907  1.00  0.00    +0.154 C 
ATOM     77  C   PHE A  11      15.683  24.745  -4.531  1.00  0.00    +0.260 C 
ATOM     78  O   PHE A  11      16.833  24.461  -4.200  1.00  0.00    -0.272 OA
ATOM     79  CB  PHE A  11      15.478  25.486  -6.891  1.00  0.00    +0.044 C 
ATOM     80  CG  PHE A  11      16.843  26.081  -6.713  1.00  0.00    -0.021 A 
ATOM     81  CD1 PHE A  11      17.017  27.188  -5.889  1.00  0.00    -0.005 A 
ATOM     82  CE1 PHE A  11      18.282  27.738  -5.725  1.00  0.00    +0.022 A 
ATOM     83  CD2 PHE A  11      17.934  25.526  -7.370  1.00  0.00    -0.004 A 
ATOM     84  CE2 PHE A  11      19.200  26.077  -7.204  1.00  0.00    -0.001 A 
ATOM     85  CZ  PHE A  11      19.374  27.184  -6.382  1.00  0.00    -0.001 A 
ATOM     86  N   PHE A  12      14.840  25.387  -3.727  1.00  0.00    -0.196 N 
ATOM     87  CA  PHE A  12      13.419  25.498  -4.048  1.00  0.00    +0.177 C 
ATOM     88  C   PHE A  12      12.958  26.943  -3.958  1.00  0.00    +0.262 C 
ATOM     89  O   PHE A  12      13.145  27.595  -2.932  1.00  0.00    -0.271 OA
ATOM     90  CB  PHE A  12      12.582  24.639  -3.113  1.00  0.00    +0.057 C 
ATOM     91  CG  PHE A  12      12.355  25.254  -1.765  1.00  0.00    -0.020 A 
ATOM     92  CD1 PHE A  12      13.378  25.956  -1.139  1.00  0.00    -0.004 A 
ATOM     93  CE1 PHE A  12      13.169  26.526   0.110  1.00  0.00    -0.000 A 
ATOM     94  CD2 PHE A  12      11.119  25.123  -1.141  1.00  0.00    -0.004 A 
ATOM     95  CE2 PHE A  12      10.909  25.694   0.109  1.00  0.00    -0.000 A 
ATOM     96  CZ  PHE A  12      11.932  26.394   0.736  1.00  0.00    -0.000 A 
ATOM     97  N   ALA A  13      12.358  27.446  -5.034  1.00  0.00    -0.196 N 
ATOM     98  CA  ALA A  13      12.812  27.116  -6.382  1.00  0.00    +0.173 C 
ATOM     99  C   ALA A  13      13.295  28.357  -7.114  1.00  0.00    +0.262 C 
ATOM    100  O   ALA A  13      12.495  29.099  -7.683  1.00  0.00    -0.271 OA
ATOM    101  CB  ALA A  13      11.698  26.458  -7.180  1.00  0.00    +0.033 C 
ATOM    102  N   GLY A  14      14.606  28.585  -7.101  1.00  0.00    -0.194 N 
ATOM    103  CA  GLY A  14      15.401  28.377  -5.894  1.00  0.00    +0.201 C 
ATOM    104  C   GLY A  14      16.686  29.188  -5.946  1.00  0.00    +0.264 C 
ATOM    105  O   GLY A  14      17.042  29.726  -6.992  1.00  0.00    -0.271 OA
ATOM    106  N   SER A  15      17.381  29.276  -4.815  1.00  0.00    -0.199 N 
ATOM    107  CA  SER A  15      18.800  29.620  -4.820  1.00  0.00    +0.175 C 
ATOM    108  C   SER A  15      19.669  28.377  -4.904  1.00  0.00    +0.226 C 
ATOM    109  O   SER A  15      19.306  27.323  -4.383  1.00  0.00    -0.201 OA
ATOM    110  CB  SER A  15      19.164  30.410  -3.573  1.00  0.00    +0.208 C 
ATOM    111  OG  SER A  15      19.003  29.615  -2.410  1.00  0.00    -0.218 OA
ATOM    112  N   SER A  16      20.819  28.496  -5.563  1.00  0.00    -0.177 NA
ATOM    113  CA  SER A  16      22.049  27.885  -5.064  1.00  0.00    +0.186 C 
ATOM    114  C   SER A  16      22.575  28.622  -3.844  1.00  0.00    +0.260 C 
ATOM    115  O   SER A  16      22.800  29.830  -3.892  1.00  0.00    -0.272 OA
ATOM    116  CB  SER A  16      23.115  27.868  -6.146  1.00  0.00    +0.209 C 
ATOM    117  OG  SER A  16      22.728  27.029  -7.220  1.00  0.00    -0.218 OA
ATOM    118  N   ASP A  17      22.769  27.894  -2.748  1.00  0.00    -0.196 N 
ATOM    119  CA  ASP A  17      21.756  27.815  -1.699  1.00  0.00    +0.184 C 
ATOM    120  C   ASP A  17      22.222  28.522  -0.436  1.00  0.00    +0.262 C 
ATOM    121  O   ASP A  17      23.404  28.488  -0.100  1.00  0.00    -0.271 OA
ATOM    122  CB  ASP A  17      21.424  26.367  -1.375  1.00  0.00    +0.145 C 
ATOM    123  CG  ASP A  17      21.237  25.508  -2.615  1.00  0.00    +0.367 C 
ATOM    124  OD1 ASP A  17      21.264  26.050  -3.742  1.00  0.00    -0.246 OA
ATOM    125  OD2 ASP A  17      21.060  24.280  -2.463  1.00  0.00    -0.246 OA
ATOM    126  N   ALA A  18      21.291  29.166   0.263  1.00  0.00    -0.196 N 
ATOM    127  CA  ALA A  18      21.070  28.882   1.678  1.00  0.00    +0.173 C 
ATOM    128  C   ALA A  18      19.587  28.747   1.984  1.00  0.00    +0.262 C 
ATOM    129  O   ALA A  18      18.753  29.330   1.293  1.00  0.00    -0.271 OA
ATOM    130  CB  ALA A  18      21.671  29.974   2.548  1.00  0.00    +0.033 C 
ATOM    131  N   ILE A  19      19.258  27.980   3.019  1.00  0.00    -0.196 N 
ATOM    132  CA  ILE A  19      20.136  26.910   3.480  1.00  0.00    +0.173 C 
ATOM    133  C   ILE A  19      19.564  25.562   3.071  1.00  0.00    +0.262 C 
ATOM    134  O   ILE A  19      18.502  25.163   3.546  1.00  0.00    -0.271 OA
ATOM    135  CB  ILE A  19      20.327  26.942   4.989  1.00  0.00    +0.029 C 
ATOM    136  CG1 ILE A  19      21.051  25.685   5.467  1.00  0.00    +0.002 C 
ATOM    137  CG2 ILE A  19      18.977  27.050   5.695  1.00  0.00    +0.002 C 
ATOM    138  CD1 ILE A  19      21.350  25.676   6.958  1.00  0.00    +0.000 C 
ATOM    139  N   ARG A  20      20.268  24.859   2.188  1.00  0.00    -0.196 N 
ATOM    140  CA  ARG A  20      20.406  23.411   2.305  1.00  0.00    +0.173 C 
ATOM    141  C   ARG A  20      21.546  23.047   3.243  1.00  0.00    +0.262 C 
ATOM    142  O   ARG A  20      21.491  22.026   3.927  1.00  0.00    -0.271 OA
ATOM    143  CB  ARG A  20      20.647  22.776   0.944  1.00  0.00    +0.033 C 
ATOM    144  CG  ARG A  20      20.540  21.261   0.947  1.00  0.00    +0.029 C 
ATOM    145  CD  ARG A  20      20.450  20.700  -0.463  1.00  0.00    +0.129 C 
ATOM    146  NE  ARG A  20      20.986  21.633  -1.450  1.00  0.00    -0.234 NA
ATOM    147  CZ  ARG A  20      22.123  21.458  -2.119  1.00  0.00    +0.284 C 
ATOM    148  NH1 ARG A  20      22.855  20.364  -1.939  1.00  0.00    -0.104 N 
ATOM    149  NH2 ARG A  20      22.530  22.391  -2.975  1.00  0.00    -0.104 N 
ATOM    150  N   ARG A  21      22.582  23.881   3.274  1.00  0.00    -0.194 N 
ATOM    151  CA  ARG A  21      23.952  23.397   3.137  1.00  0.00    +0.198 C 
ATOM    152  C   ARG A  21      24.545  23.049   4.493  1.00  0.00    +0.384 C 
ATOM    153  O   ARG A  21      25.298  22.085   4.617  1.00  0.00    -0.244 OA
ATOM    154  CB  ARG A  21      24.827  24.433   2.451  1.00  0.00    +0.035 C 
ATOM    155  CG  ARG A  21      24.805  24.347   0.933  1.00  0.00    +0.029 C 
ATOM    156  CD  ARG A  21      25.945  25.135   0.306  1.00  0.00    +0.129 C 
ATOM    157  NE  ARG A  21      25.857  25.143  -1.151  1.00  0.00    -0.234 NA
ATOM    158  CZ  ARG A  21      26.888  25.321  -1.971  1.00  0.00    +0.284 C 
ATOM    159  NH1 ARG A  21      27.442  24.286  -2.598  1.00  0.00    -0.104 N 
ATOM    160  NH2 ARG A  21      27.369  26.544  -2.167  1.00  0.00    -0.104 N 
ATOM    161  OXT ARG A  21      24.281  23.729   5.484  1.00  0.00    -0.244 OA
ATOM    162  H   MET A   1      13.203   8.176  -4.783  1.00  0.00    +0.000 HD
ATOM    163  H   MET A   1      12.596   8.901  -3.412  1.00  0.00    +0.000 HD
ATOM    164  H   LYS A   2      14.698   7.854  -5.612  1.00  0.00    +0.000 HD
ATOM    165  H   LYS A   2      16.189   5.846  -4.739  1.00  0.00    +0.000 HD
ATOM    166  H   GLN A   3      14.566   9.403  -7.566  1.00  0.00    +0.000 HD
ATOM    167  H   GLN A   3      11.028   6.844 -10.868  1.00  0.00    +0.000 HD
ATOM    168  H   GLN A   3      10.554   6.231  -9.350  1.00  0.00    +0.000 HD
ATOM    169  H   ALA A   4      14.966  11.403  -7.749  1.00  0.00    +0.000 HD
ATOM    170  H   VAL A   5      15.025  15.382 -10.105  1.00  0.00    +0.000 HD
ATOM    171  H   ASN A   6      17.792  15.905  -6.793  1.00  0.00    +0.000 HD
ATOM    172  H   ASN A   6      20.700  16.917  -3.889  1.00  0.00    +0.000 HD
ATOM    173  H   ASN A   6      21.323  15.766  -4.980  1.00  0.00    +0.000 HD
ATOM    174  H   ALA A   7      18.120  18.303  -7.747  1.00  0.00    +0.000 HD
ATOM    175  H   LEU A   8      16.532  20.848  -8.103  1.00  0.00    +0.000 HD
ATOM    176  H   LEU A   9      16.832  20.229  -3.831  1.00  0.00    +0.000 HD
ATOM    177  H   VAL A  10      13.125  23.592  -2.803  1.00  0.00    +0.000 HD
ATOM    178  H   PHE A  11      13.097  24.869  -5.857  1.00  0.00    +0.000 HD
ATOM    179  H   PHE A  12      15.180  25.795  -2.899  1.00  0.00    +0.000 HD
ATOM    180  H   ALA A  13      11.591  28.052  -4.918  1.00  0.00    +0.000 HD
ATOM    181  H   GLY A  14      15.049  28.900  -7.921  1.00  0.00    +0.000 HD
ATOM    182  H   SER A  15      16.930  29.105  -3.957  1.00  0.00    +0.000 HD
ATOM    183  H   SER A  15      18.444  27.453  -3.957  1.00  0.00    +0.000 HD
ATOM    184  H   SER A  15      18.077  29.336  -2.335  1.00  0.00    +0.000 HD
ATOM    185  H   SER A  16      21.005  29.496  -5.639  1.00  0.00    +0.000 HD
ATOM    186  H   SER A  16      21.904  27.361  -7.611  1.00  0.00    +0.000 HD
ATOM    187  H   ASP A  17      23.614  27.399  -2.641  1.00  0.00    +0.000 HD
ATOM    188  H   ASP A  17      21.047  23.912  -1.601  1.00  0.00    +0.000 HD
ATOM    189  H   ALA A  18      20.740  29.849  -0.183  1.00  0.00    +0.000 HD
ATOM    190  H   ILE A  19      18.405  28.137   3.483  1.00  0.00    +0.000 HD
ATOM    191  H   ARG A  20      20.705  25.326   1.438  1.00  0.00    +0.000 HD
ATOM    192  H   ARG A  20      22.558  19.671  -1.306  1.00  0.00    +0.000 HD
ATOM    193  H   ARG A  20      23.695  20.246  -2.439  1.00  0.00    +0.000 HD
ATOM    194  H   ARG A  20      21.990  23.203  -3.112  1.00  0.00    +0.000 HD
ATOM    195  H   ARG A  20      23.370  22.269  -3.474  1.00  0.00    +0.000 HD
ATOM    196  H   ARG A  21      22.422  24.845   3.393  1.00  0.00    +0.000 HD
ATOM    197  H   ARG A  21      25.510  21.557   3.872  1.00  0.00    +0.000 HD
ATOM    198  H   ARG A  21      27.088  23.378  -2.457  1.00  0.00    +0.000 HD
ATOM    199  H   ARG A  21      28.205  24.428  -3.205  1.00  0.00    +0.000 HD
ATOM    200  H   ARG A  21      26.963  27.312  -1.704  1.00  0.00    +0.000 HD
ATOM    201  H   ARG A  21      28.132  26.682  -2.773  1.00  0.00    +0.000 HD
ENDROOT
TORSDOF 0
