REMARK  Name = /var/folders/yp/yjbh3p597675h2qddgqr02y00000gn/T/tmpczizk6cs.pdb
REMARK     285 UNITARY VALUES FOR THE UNIT CELL AUTOMATICALLY SET
REMARK     285 BY MDANALYSIS PDBWRITER BECAUSE UNIT CELL INFORMATION
REMARK     285 WAS MISSING.
REMARK     285 PROTEIN DATA BANK CONVENTIONS REQUIRE THAT
REMARK     285 CRYST1 RECORD IS INCLUDED, BUT THE VALUES ON
REMARK     285 THIS RECORD ARE MEANINGLESS.
REMARK     285 UNITARY VALUES FOR THE UNIT CELL AUTOMATICALLY SET
REMARK     285 BY MDANALYSIS PDBWRITER BECAUSE UNIT CELL INFORMATION
REMARK     285 WAS MISSING.
REMARK     285 PROTEIN DATA BANK CONVENTIONS REQUIRE THAT
REMARK     285 CRYST1 RECORD IS INCLUDED, BUT THE VALUES ON
REMARK     285 THIS RECORD ARE MEANINGLESS.
REMARK                            x       y       z     vdW  Elec       q    Type
REMARK                         _______ _______ _______ _____ _____    ______ ____
REMARK  Name = /var/folders/yp/yjbh3p597675h2qddgqr02y00000gn/T/tmpczizk6cs.pdb
REMARK     285 UNITARY VALUES FOR THE UNIT CELL AUTOMATICALLY SET
REMARK     285 BY MDANALYSIS PDBWRITER BECAUSE UNIT CELL INFORMATION
REMARK     285 WAS MISSING.
REMARK     285 PROTEIN DATA BANK CONVENTIONS REQUIRE THAT
REMARK     285 CRYST1 RECORD IS INCLUDED, BUT THE VALUES ON
REMARK     285 THIS RECORD ARE MEANINGLESS.
REMARK     285 UNITARY VALUES FOR THE UNIT CELL AUTOMATICALLY SET
REMARK     285 BY MDANALYSIS PDBWRITER BECAUSE UNIT CELL INFORMATION
REMARK     285 WAS MISSING.
REMARK     285 PROTEIN DATA BANK CONVENTIONS REQUIRE THAT
REMARK     285 CRYST1 RECORD IS INCLUDED, BUT THE VALUES ON
REMARK     285 THIS RECORD ARE MEANINGLESS.
REMARK                            x       y       z     vdW  Elec       q    Type
REMARK                         _______ _______ _______ _____ _____    ______ ____
ROOT
ATOM      1  N   MET A   1      22.831   1.289   0.156  1.00  0.00    -0.123 NA
ATOM      2  CA  MET A   1      22.725   1.622  -1.262  1.00  0.00    +0.169 C 
ATOM      3  C   MET A   1      23.410   2.945  -1.561  1.00  0.00    +0.259 C 
ATOM      4  O   MET A   1      23.523   3.803  -0.687  1.00  0.00    -0.272 OA
ATOM      5  CB  MET A   1      21.270   1.696  -1.694  1.00  0.00    +0.028 C 
ATOM      6  CG  MET A   1      20.523   2.891  -1.124  1.00  0.00    +0.002 C 
ATOM      7  N   LYS A   2      23.869   3.112  -2.799  1.00  0.00    -0.197 N 
ATOM      8  CA  LYS A   2      24.697   4.262  -3.153  1.00  0.00    +0.173 C 
ATOM      9  C   LYS A   2      23.862   5.529  -3.240  1.00  0.00    +0.262 C 
ATOM     10  O   LYS A   2      24.380   6.631  -3.059  1.00  0.00    -0.271 OA
ATOM     11  CB  LYS A   2      25.407   4.030  -4.476  1.00  0.00    +0.031 C 
ATOM     12  CG  LYS A   2      26.741   3.314  -4.341  1.00  0.00    +0.009 C 
ATOM     13  CD  LYS A   2      27.152   2.634  -5.636  1.00  0.00    +0.049 C 
ATOM     14  CE  LYS A   2      28.440   1.959  -5.506  1.00  0.00    +0.096 C 
ATOM     15  NZ  LYS A   2      29.614   2.496  -5.827  1.00  0.00    -0.151 NA
ATOM     16  N   GLN A   3      22.571   5.376  -3.520  1.00  0.00    -0.196 N 
ATOM     17  CA  GLN A   3      21.803   6.432  -4.173  1.00  0.00    +0.173 C 
ATOM     18  C   GLN A   3      21.412   7.517  -3.183  1.00  0.00    +0.262 C 
ATOM     19  O   GLN A   3      20.981   8.599  -3.579  1.00  0.00    -0.271 OA
ATOM     20  CB  GLN A   3      20.552   5.868  -4.827  1.00  0.00    +0.041 C 
ATOM     21  CG  GLN A   3      20.805   5.229  -6.182  1.00  0.00    +0.091 C 
ATOM     22  CD  GLN A   3      21.490   3.876  -6.077  1.00  0.00    +0.261 C 
ATOM     23  OE1 GLN A   3      21.545   3.273  -4.997  1.00  0.00    -0.272 OA
ATOM     24  NE2 GLN A   3      22.017   3.389  -7.197  1.00  0.00    -0.088 N 
ATOM     25  N   ALA A   4      21.559   7.228  -1.893  1.00  0.00    -0.196 N 
ATOM     26  CA  ALA A   4      20.810   7.945  -0.863  1.00  0.00    +0.173 C 
ATOM     27  C   ALA A   4      21.742   8.507   0.198  1.00  0.00    +0.262 C 
ATOM     28  O   ALA A   4      22.796   7.934   0.472  1.00  0.00    -0.271 OA
ATOM     29  CB  ALA A   4      19.786   7.033  -0.208  1.00  0.00    +0.033 C 
ATOM     30  N   VAL A   5      21.356   9.629   0.797  1.00  0.00    -0.196 N 
ATOM     31  CA  VAL A   5      20.084  10.267   0.469  1.00  0.00    +0.173 C 
ATOM     32  C   VAL A   5      20.322  11.428  -0.485  1.00  0.00    +0.262 C 
ATOM     33  O   VAL A   5      20.861  12.460  -0.090  1.00  0.00    -0.271 OA
ATOM     34  CB  VAL A   5      19.365  10.771   1.710  1.00  0.00    +0.029 C 
ATOM     35  CG1 VAL A   5      17.888  10.388   1.670  1.00  0.00    +0.002 C 
ATOM     36  CG2 VAL A   5      19.978  10.156   2.966  1.00  0.00    +0.002 C 
ATOM     37  N   ASN A   6      19.920  11.259  -1.741  1.00  0.00    -0.196 N 
ATOM     38  CA  ASN A   6      19.539  12.394  -2.577  1.00  0.00    +0.182 C 
ATOM     39  C   ASN A   6      18.045  12.664  -2.501  1.00  0.00    +0.262 C 
ATOM     40  O   ASN A   6      17.596  13.771  -2.791  1.00  0.00    -0.271 OA
ATOM     41  CB  ASN A   6      19.940  12.163  -4.024  1.00  0.00    +0.120 C 
ATOM     42  CG  ASN A   6      21.438  12.289  -4.244  1.00  0.00    +0.263 C 
ATOM     43  OD1 ASN A   6      21.973  13.394  -4.332  1.00  0.00    -0.272 OA
ATOM     44  ND2 ASN A   6      22.123  11.151  -4.332  1.00  0.00    -0.088 N 
ATOM     45  N   ALA A   7      17.275  11.651  -2.110  1.00  0.00    -0.201 N 
ATOM     46  CA  ALA A   7      16.279  11.065  -3.000  1.00  0.00    +0.147 C 
ATOM     47  C   ALA A   7      15.164  12.053  -3.299  1.00  0.00    +0.222 C 
ATOM     48  O   ALA A   7      14.319  11.800  -4.158  1.00  0.00    -0.214 OA
ATOM     49  CB  ALA A   7      15.689   9.801  -2.394  1.00  0.00    +0.164 C 
ATOM     50  N   LEU A   8      15.157  13.179  -2.589  1.00  0.00    -0.150 NA
ATOM     51  CA  LEU A   8      13.909  13.795  -2.151  1.00  0.00    +0.087 C 
ATOM     52  C   LEU A   8      13.182  14.437  -3.322  1.00  0.00    +0.241 C 
ATOM     53  O   LEU A   8      13.748  15.275  -4.023  1.00  0.00    -0.273 OA
ATOM     54  CB  LEU A   8      14.171  14.842  -1.081  1.00  0.00    +0.011 C 
ATOM     55  CG  LEU A   8      15.001  14.382   0.120  1.00  0.00    +0.001 C 
ATOM     56  CD1 LEU A   8      14.574  15.137   1.374  1.00  0.00    +0.008 C 
ATOM     57  CD2 LEU A   8      16.431  14.900   0.012  1.00  0.00    +0.000 C 
ATOM     58  N   LEU A   9      11.930  14.045  -3.534  1.00  0.00    -0.203 N 
ATOM     59  CA  LEU A   9      10.946  14.937  -4.142  1.00  0.00    +0.142 C 
ATOM     60  C   LEU A   9      10.267  15.793  -3.086  1.00  0.00    +0.246 C 
ATOM     61  O   LEU A   9      10.048  16.986  -3.295  1.00  0.00    -0.202 OA
ATOM     62  CB  LEU A   9       9.897  14.143  -4.903  1.00  0.00    +0.026 C 
ATOM     63  CG  LEU A   9      10.396  13.367  -6.124  1.00  0.00    +0.002 C 
ATOM     64  CD1 LEU A   9       9.239  12.635  -6.794  1.00  0.00    +0.000 C 
ATOM     65  CD2 LEU A   9      11.217  12.155  -5.690  1.00  0.00    +0.000 C 
ATOM     66  N   VAL A  10       9.931  15.189  -1.952  1.00  0.00    -0.180 NA
ATOM     67  CA  VAL A  10       8.593  15.323  -1.383  1.00  0.00    +0.155 C 
ATOM     68  C   VAL A  10       8.414  16.723  -0.819  1.00  0.00    +0.257 C 
ATOM     69  O   VAL A  10       7.317  17.277  -0.859  1.00  0.00    -0.272 OA
ATOM     70  CB  VAL A  10       8.335  14.299  -0.291  1.00  0.00    +0.055 C 
ATOM     71  CG1 VAL A  10       6.973  14.533   0.359  1.00  0.00    +0.005 C 
ATOM     72  CG2 VAL A  10       8.341  12.887  -0.872  1.00  0.00    +0.144 C 
ATOM     73  N   PHE A  11       9.491  17.295  -0.289  1.00  0.00    -0.202 N 
ATOM     74  CA  PHE A  11      10.146  18.428  -0.937  1.00  0.00    +0.147 C 
ATOM     75  C   PHE A  11      11.115  17.950  -2.008  1.00  0.00    +0.246 C 
ATOM     76  O   PHE A  11      11.008  18.345  -3.168  1.00  0.00    -0.202 OA
ATOM     77  CB  PHE A  11      10.890  19.279   0.079  1.00  0.00    +0.052 C 
ATOM     78  CG  PHE A  11      10.042  19.725   1.232  1.00  0.00    -0.020 A 
ATOM     79  CD1 PHE A  11       9.971  18.951   2.384  1.00  0.00    -0.004 A 
ATOM     80  CE1 PHE A  11       9.186  19.365   3.452  1.00  0.00    -0.000 A 
ATOM     81  CD2 PHE A  11       9.327  20.916   1.149  1.00  0.00    -0.004 A 
ATOM     82  CE2 PHE A  11       8.542  21.330   2.218  1.00  0.00    -0.000 A 
ATOM     83  CZ  PHE A  11       8.471  20.555   3.370  1.00  0.00    -0.000 A 
ATOM     84  N   PHE A  12      12.061  17.101  -1.619  1.00  0.00    -0.180 NA
ATOM     85  CA  PHE A  12      13.441  17.537  -1.426  1.00  0.00    +0.153 C 
ATOM     86  C   PHE A  12      14.137  17.733  -2.764  1.00  0.00    +0.258 C 
ATOM     87  O   PHE A  12      13.630  18.442  -3.632  1.00  0.00    -0.272 OA
ATOM     88  CB  PHE A  12      14.218  16.529  -0.594  1.00  0.00    +0.030 C 
ATOM     89  CG  PHE A  12      13.645  16.301   0.773  1.00  0.00    +0.024 C 
ATOM     90  CD1 PHE A  12      13.772  17.278   1.752  1.00  0.00    -0.026 C 
ATOM     91  CE1 PHE A  12      13.240  17.069   3.020  1.00  0.00    -0.005 C 
ATOM     92  CD2 PHE A  12      12.984  15.112   1.061  1.00  0.00    +0.026 C 
ATOM     93  CE2 PHE A  12      12.452  14.901   2.328  1.00  0.00    -0.026 C 
ATOM     94  CZ  PHE A  12      12.580  15.880   3.308  1.00  0.00    -0.005 C 
ATOM     95  N   ALA A  13      15.298  17.106  -2.930  1.00  0.00    -0.197 N 
ATOM     96  CA  ALA A  13      15.702  16.591  -4.234  1.00  0.00    +0.173 C 
ATOM     97  C   ALA A  13      15.653  15.071  -4.261  1.00  0.00    +0.263 C 
ATOM     98  O   ALA A  13      15.398  14.473  -5.305  1.00  0.00    -0.271 OA
ATOM     99  CB  ALA A  13      17.105  17.059  -4.588  1.00  0.00    +0.033 C 
ATOM    100  N   GLY A  14      15.897  14.445  -3.114  1.00  0.00    -0.185 N 
ATOM    101  CA  GLY A  14      16.194  13.017  -3.074  1.00  0.00    +0.204 C 
ATOM    102  C   GLY A  14      14.914  12.198  -3.040  1.00  0.00    +0.321 C 
ATOM    103  O   GLY A  14      13.873  12.645  -3.519  1.00  0.00    -0.184 OA
ATOM    104  N   SER A  15      14.990  10.996  -2.474  1.00  0.00    -0.079 NA
ATOM    105  CA  SER A  15      14.014   9.953  -2.774  1.00  0.00    +0.119 C 
ATOM    106  C   SER A  15      12.717  10.177  -2.013  1.00  0.00    +0.244 C 
ATOM    107  O   SER A  15      12.722  10.743  -0.922  1.00  0.00    -0.273 OA
ATOM    108  CB  SER A  15      14.573   8.582  -2.431  1.00  0.00    +0.153 C 
ATOM    109  OG  SER A  15      15.985   8.568  -2.554  1.00  0.00    -0.351 OA
ATOM    110  N   SER A  16      11.603   9.733  -2.591  1.00  0.00    -0.195 N 
ATOM    111  CA  SER A  16      10.432   9.366  -1.801  1.00  0.00    +0.202 C 
ATOM    112  C   SER A  16       9.909   7.993  -2.195  1.00  0.00    +0.264 C 
ATOM    113  O   SER A  16       9.330   7.831  -3.268  1.00  0.00    -0.271 OA
ATOM    114  CB  SER A  16       9.328  10.397  -1.966  1.00  0.00    +0.173 C 
ATOM    115  OG  SER A  16       9.560  11.519  -1.132  1.00  0.00    -0.351 OA
ATOM    116  N   ASP A  17      10.111   7.006  -1.328  1.00  0.00    -0.196 N 
ATOM    117  CA  ASP A  17      11.284   6.142  -1.421  1.00  0.00    +0.184 C 
ATOM    118  C   ASP A  17      10.957   4.858  -2.166  1.00  0.00    +0.262 C 
ATOM    119  O   ASP A  17       9.790   4.489  -2.293  1.00  0.00    -0.271 OA
ATOM    120  CB  ASP A  17      11.820   5.803  -0.039  1.00  0.00    +0.145 C 
ATOM    121  CG  ASP A  17      12.377   7.011   0.697  1.00  0.00    +0.367 C 
ATOM    122  OD1 ASP A  17      13.615   7.174   0.750  1.00  0.00    -0.246 OA
ATOM    123  OD2 ASP A  17      11.569   7.804   1.226  1.00  0.00    -0.246 OA
ATOM    124  N   ALA A  18      11.987   4.177  -2.662  1.00  0.00    -0.196 N 
ATOM    125  CA  ALA A  18      11.978   2.718  -2.717  1.00  0.00    +0.173 C 
ATOM    126  C   ALA A  18      13.326   2.147  -2.311  1.00  0.00    +0.262 C 
ATOM    127  O   ALA A  18      14.326   2.361  -2.995  1.00  0.00    -0.271 OA
ATOM    128  CB  ALA A  18      11.621   2.235  -4.114  1.00  0.00    +0.033 C 
ATOM    129  N   ILE A  19      13.355   1.419  -1.199  1.00  0.00    -0.196 N 
ATOM    130  CA  ILE A  19      12.853   1.943   0.068  1.00  0.00    +0.173 C 
ATOM    131  C   ILE A  19      13.986   2.013   1.079  1.00  0.00    +0.262 C 
ATOM    132  O   ILE A  19      14.226   1.058   1.816  1.00  0.00    -0.271 OA
ATOM    133  CB  ILE A  19      11.725   1.092   0.627  1.00  0.00    +0.029 C 
ATOM    134  CG1 ILE A  19      11.925   0.844   2.120  1.00  0.00    +0.002 C 
ATOM    135  CG2 ILE A  19      11.653  -0.245  -0.105  1.00  0.00    +0.002 C 
ATOM    136  CD1 ILE A  19      11.462   1.990   3.005  1.00  0.00    +0.000 C 
ATOM    137  N   ARG A  20      14.684   3.145   1.115  1.00  0.00    -0.196 N 
ATOM    138  CA  ARG A  20      14.429   4.225   0.166  1.00  0.00    +0.173 C 
ATOM    139  C   ARG A  20      14.959   3.873  -1.215  1.00  0.00    +0.261 C 
ATOM    140  O   ARG A  20      14.322   4.175  -2.223  1.00  0.00    -0.271 OA
ATOM    141  CB  ARG A  20      15.065   5.522   0.638  1.00  0.00    +0.033 C 
ATOM    142  CG  ARG A  20      16.368   5.328   1.396  1.00  0.00    +0.029 C 
ATOM    143  CD  ARG A  20      16.638   6.472   2.360  1.00  0.00    +0.129 C 
ATOM    144  NE  ARG A  20      16.325   6.102   3.738  1.00  0.00    -0.234 NA
ATOM    145  CZ  ARG A  20      16.463   6.905   4.788  1.00  0.00    +0.284 C 
ATOM    146  NH1 ARG A  20      16.956   8.132   4.643  1.00  0.00    -0.104 N 
ATOM    147  NH2 ARG A  20      16.104   6.476   5.995  1.00  0.00    -0.104 N 
ATOM    148  N   ARG A  21      16.123   3.234  -1.262  1.00  0.00    -0.204 N 
ATOM    149  CA  ARG A  21      17.204   3.551  -0.333  1.00  0.00    +0.115 C 
ATOM    150  CB  ARG A  21      17.519   2.363   0.561  1.00  0.00    +0.025 C 
ATOM    151  CG  ARG A  21      16.504   2.143   1.671  1.00  0.00    +0.028 C 
ATOM    152  CD  ARG A  21      16.737   3.084   2.842  1.00  0.00    +0.129 C 
ATOM    153  NE  ARG A  21      18.007   2.813   3.509  1.00  0.00    -0.234 NA
ATOM    154  CZ  ARG A  21      18.207   1.842   4.394  1.00  0.00    +0.284 C 
ATOM    155  NH1 ARG A  21      17.205   1.054   4.774  1.00  0.00    -0.104 N 
ATOM    156  NH2 ARG A  21      19.422   1.656   4.904  1.00  0.00    -0.104 N 
ATOM    157  H   MET A   1      22.365   0.399   0.332  1.00  0.00    +0.000 HD
ATOM    158  H   MET A   1      22.387   2.021   0.711  1.00  0.00    +0.000 HD
ATOM    159  H   LYS A   2      23.647   2.447  -3.489  1.00  0.00    +0.000 HD
ATOM    160  H   LYS A   2      29.655   3.414  -6.180  1.00  0.00    +0.000 HD
ATOM    161  H   GLN A   3      22.123   4.532  -3.281  1.00  0.00    +0.000 HD
ATOM    162  H   GLN A   3      21.951   3.901  -8.035  1.00  0.00    +0.000 HD
ATOM    163  H   GLN A   3      22.473   2.516  -7.188  1.00  0.00    +0.000 HD
ATOM    164  H   ALA A   4      22.186   6.517  -1.627  1.00  0.00    +0.000 HD
ATOM    165  H   VAL A   5      21.940  10.039   1.475  1.00  0.00    +0.000 HD
ATOM    166  H   ASN A   6      19.879  10.349  -2.116  1.00  0.00    +0.000 HD
ATOM    167  H   ASN A   6      23.096  11.172  -4.474  1.00  0.00    +0.000 HD
ATOM    168  H   ASN A   6      21.655  10.289  -4.256  1.00  0.00    +0.000 HD
ATOM    169  H   ALA A   7      17.380  11.290  -1.200  1.00  0.00    +0.000 HD
ATOM    170  H   LEU A   8      15.151  13.204  -1.570  1.00  0.00    +0.000 HD
ATOM    171  H   LEU A   9      11.660  13.134  -3.276  1.00  0.00    +0.000 HD
ATOM    172  H   VAL A  10      10.581  15.527  -1.242  1.00  0.00    +0.000 HD
ATOM    173  H   PHE A  11       9.855  16.948   0.557  1.00  0.00    +0.000 HD
ATOM    174  H   PHE A  12      12.088  16.359  -2.318  1.00  0.00    +0.000 HD
ATOM    175  H   ALA A  13      15.897  16.988  -2.158  1.00  0.00    +0.000 HD
ATOM    176  H   GLY A  14      15.876  14.956  -2.272  1.00  0.00    +0.000 HD
ATOM    177  H   SER A  15      14.322  10.940  -1.705  1.00  0.00    +0.000 HD
ATOM    178  H   SER A  15      15.934  10.847  -2.117  1.00  0.00    +0.000 HD
ATOM    179  H   SER A  16      11.569   9.650  -3.571  1.00  0.00    +0.000 HD
ATOM    180  H   ASP A  17       9.456   6.854  -0.608  1.00  0.00    +0.000 HD
ATOM    181  H   ASP A  17      10.648   7.646   1.163  1.00  0.00    +0.000 HD
ATOM    182  H   ALA A  18      12.772   4.668  -2.999  1.00  0.00    +0.000 HD
ATOM    183  H   ILE A  19      13.723   0.506  -1.230  1.00  0.00    +0.000 HD
ATOM    184  H   ARG A  20      15.386   3.257   1.796  1.00  0.00    +0.000 HD
ATOM    185  H   ARG A  20      17.224   8.453   3.751  1.00  0.00    +0.000 HD
ATOM    186  H   ARG A  20      17.053   8.719   5.428  1.00  0.00    +0.000 HD
ATOM    187  H   ARG A  20      15.738   5.568   6.107  1.00  0.00    +0.000 HD
ATOM    188  H   ARG A  20      16.202   7.066   6.777  1.00  0.00    +0.000 HD
ATOM    189  H   ARG A  21      16.260   2.531  -1.938  1.00  0.00    +0.000 HD
ATOM    190  H   ARG A  21      16.304   1.188   4.400  1.00  0.00    +0.000 HD
ATOM    191  H   ARG A  21      17.365   0.337   5.430  1.00  0.00    +0.000 HD
ATOM    192  H   ARG A  21      20.167   2.237   4.626  1.00  0.00    +0.000 HD
ATOM    193  H   ARG A  21      19.577   0.938   5.559  1.00  0.00    +0.000 HD
ATOM      1  SD  MET A   1      18.726   2.712  -1.240  1.00  0.00    +0.094 S 
ATOM      2  CE  MET A   1      18.248   4.403  -1.580  1.00  0.00    +0.215 C 
ATOM      3  C   ARG A  21      18.459   3.971  -1.079  1.00  0.00    +0.194 C 
ATOM      4  O   ARG A  21      18.837   5.142  -1.058  1.00  0.00    -0.218 OA
ATOM      5  OXT ARG A  21      19.113   3.147  -1.715  1.00  0.00    -0.286 OA
ATOM      6  H   MET A   1      19.047   1.409  -1.456  1.00  0.00    +0.000 HD
ATOM      7  H   ARG A  21      18.568   5.171  -0.127  1.00  0.00    +0.000 HD
ENDROOT
TORSDOF 0
