REMARK  Name = /var/folders/yp/yjbh3p597675h2qddgqr02y00000gn/T/tmp03uczoi1.pdb
REMARK     285 UNITARY VALUES FOR THE UNIT CELL AUTOMATICALLY SET
REMARK     285 BY MDANALYSIS PDBWRITER BECAUSE UNIT CELL INFORMATION
REMARK     285 WAS MISSING.
REMARK     285 PROTEIN DATA BANK CONVENTIONS REQUIRE THAT
REMARK     285 CRYST1 RECORD IS INCLUDED, BUT THE VALUES ON
REMARK     285 THIS RECORD ARE MEANINGLESS.
REMARK     285 UNITARY VALUES FOR THE UNIT CELL AUTOMATICALLY SET
REMARK     285 BY MDANALYSIS PDBWRITER BECAUSE UNIT CELL INFORMATION
REMARK     285 WAS MISSING.
REMARK     285 PROTEIN DATA BANK CONVENTIONS REQUIRE THAT
REMARK     285 CRYST1 RECORD IS INCLUDED, BUT THE VALUES ON
REMARK     285 THIS RECORD ARE MEANINGLESS.
REMARK                            x       y       z     vdW  Elec       q    Type
REMARK                         _______ _______ _______ _____ _____    ______ ____
ROOT
ATOM      1  N   MET A   1      14.174  -6.683  18.272  1.00  0.00    -0.123 NA
ATOM      2  CA  MET A   1      14.864  -6.559  19.552  1.00  0.00    +0.170 C 
ATOM      3  C   MET A   1      14.886  -5.113  20.020  1.00  0.00    +0.259 C 
ATOM      4  O   MET A   1      15.954  -4.520  20.168  1.00  0.00    -0.272 OA
ATOM      5  CB  MET A   1      16.289  -7.081  19.452  1.00  0.00    +0.040 C 
ATOM      6  CG  MET A   1      17.346  -5.997  19.582  1.00  0.00    +0.060 C 
ATOM      7  SD  MET A   1      18.921  -6.463  18.821  1.00  0.00    -0.139 S 
ATOM      8  CE  MET A   1      20.067  -5.564  19.860  1.00  0.00    +0.069 C 
ATOM      9  N   LYS A   2      13.707  -4.545  20.255  1.00  0.00    -0.197 N 
ATOM     10  CA  LYS A   2      13.584  -3.383  21.131  1.00  0.00    +0.173 C 
ATOM     11  C   LYS A   2      14.014  -3.719  22.550  1.00  0.00    +0.262 C 
ATOM     12  O   LYS A   2      14.317  -2.826  23.338  1.00  0.00    -0.271 OA
ATOM     13  CB  LYS A   2      12.154  -2.864  21.143  1.00  0.00    +0.031 C 
ATOM     14  CG  LYS A   2      11.798  -2.019  19.932  1.00  0.00    +0.009 C 
ATOM     15  CD  LYS A   2      10.393  -1.446  20.038  1.00  0.00    +0.049 C 
ATOM     16  CE  LYS A   2      10.403   0.012  20.015  1.00  0.00    +0.096 C 
ATOM     17  NZ  LYS A   2       9.317   0.780  20.052  1.00  0.00    -0.151 NA
ATOM     18  N   GLN A   3      14.038  -5.009  22.875  1.00  0.00    -0.196 N 
ATOM     19  CA  GLN A   3      14.022  -5.441  24.270  1.00  0.00    +0.173 C 
ATOM     20  C   GLN A   3      15.393  -5.284  24.906  1.00  0.00    +0.261 C 
ATOM     21  O   GLN A   3      15.502  -4.939  26.081  1.00  0.00    -0.271 OA
ATOM     22  CB  GLN A   3      13.571  -6.889  24.383  1.00  0.00    +0.041 C 
ATOM     23  CG  GLN A   3      12.505  -7.118  25.441  1.00  0.00    +0.091 C 
ATOM     24  CD  GLN A   3      11.620  -8.314  25.136  1.00  0.00    +0.261 C 
ATOM     25  OE1 GLN A   3      10.429  -8.162  24.828  1.00  0.00    -0.272 OA
ATOM     26  NE2 GLN A   3      12.192  -9.512  25.216  1.00  0.00    -0.088 N 
ATOM     27  N   ALA A   4      16.444  -5.539  24.130  1.00  0.00    -0.207 N 
ATOM     28  CA  ALA A   4      17.744  -5.883  24.699  1.00  0.00    +0.091 C 
ATOM     29  C   ALA A   4      18.308  -4.728  25.510  1.00  0.00    +0.081 C 
ATOM     30  O   ALA A   4      18.230  -3.573  25.093  1.00  0.00    -0.376 OA
ATOM     31  CB  ALA A   4      18.728  -6.262  23.603  1.00  0.00    +0.026 C 
ATOM     32  N   VAL A   5      18.877  -5.037  26.671  1.00  0.00    +0.418 N 
ATOM     33  CA  VAL A   5      19.910  -4.191  27.262  1.00  0.00    +0.013 C 
ATOM     34  C   VAL A   5      21.245  -4.460  26.587  1.00  0.00    +0.100 C 
ATOM     35  O   VAL A   5      22.174  -3.663  26.706  1.00  0.00    -0.285 OA
ATOM     36  CB  VAL A   5      20.043  -4.418  28.758  1.00  0.00    +0.055 C 
ATOM     37  CG1 VAL A   5      20.160  -3.088  29.499  1.00  0.00    +0.078 C 
ATOM     38  CG2 VAL A   5      18.815  -5.150  29.298  1.00  0.00    +0.183 C 
ATOM     39  N   ASN A   6      21.339  -5.581  25.879  1.00  0.00    +0.447 N 
ATOM     40  CA  ASN A   6      22.629  -6.070  25.399  1.00  0.00    +0.044 C 
ATOM     41  C   ASN A   6      23.099  -5.293  24.177  1.00  0.00    +0.224 C 
ATOM     42  O   ASN A   6      24.203  -5.519  23.682  1.00  0.00    -0.276 OA
ATOM     43  CB  ASN A   6      22.560  -7.550  25.063  1.00  0.00    +0.079 C 
ATOM     44  CG  ASN A   6      21.212  -7.958  24.495  1.00  0.00    +0.259 C 
ATOM     45  OD1 ASN A   6      20.171  -7.447  24.908  1.00  0.00    -0.318 OA
ATOM     46  ND2 ASN A   6      21.226  -8.884  23.540  1.00  0.00    -0.108 NA
ATOM     47  N   ALA A   7      22.264  -4.378  23.695  1.00  0.00    -0.199 N 
ATOM     48  CA  ALA A   7      22.623  -2.964  23.661  1.00  0.00    +0.173 C 
ATOM     49  C   ALA A   7      22.528  -2.343  25.046  1.00  0.00    +0.268 C 
ATOM     50  O   ALA A   7      23.157  -1.320  25.315  1.00  0.00    -0.271 OA
ATOM     51  CB  ALA A   7      21.723  -2.202  22.702  1.00  0.00    +0.033 C 
ATOM     52  N   LEU A   8      21.741  -2.960  25.923  1.00  0.00    -0.162 N 
ATOM     53  CA  LEU A   8      21.215  -2.263  27.093  1.00  0.00    +0.181 C 
ATOM     54  C   LEU A   8      22.313  -2.016  28.114  1.00  0.00    +0.262 C 
ATOM     55  O   LEU A   8      22.869  -2.959  28.675  1.00  0.00    -0.271 OA
ATOM     56  CB  LEU A   8      20.094  -3.063  27.738  1.00  0.00    +0.026 C 
ATOM     57  CG  LEU A   8      18.713  -2.926  27.093  1.00  0.00    -0.029 C 
ATOM     58  CD1 LEU A   8      17.703  -2.417  28.113  1.00  0.00    -0.050 C 
ATOM     59  CD2 LEU A   8      18.106  -4.298  26.827  1.00  0.00    -0.007 C 
ATOM     60  N   LEU A   9      22.626  -0.746  28.357  1.00  0.00    -0.196 N 
ATOM     61  CA  LEU A   9      21.990   0.001  29.438  1.00  0.00    +0.173 C 
ATOM     62  C   LEU A   9      20.561   0.371  29.073  1.00  0.00    +0.261 C 
ATOM     63  O   LEU A   9      20.310   0.899  27.991  1.00  0.00    -0.271 OA
ATOM     64  CB  LEU A   9      22.775   1.263  29.757  1.00  0.00    +0.031 C 
ATOM     65  CG  LEU A   9      24.294   1.107  29.839  1.00  0.00    +0.002 C 
ATOM     66  CD1 LEU A   9      24.928   2.387  30.371  1.00  0.00    +0.000 C 
ATOM     67  CD2 LEU A   9      24.910   1.105  28.444  1.00  0.00    +0.000 C 
ATOM     68  N   VAL A  10      19.623   0.095  29.976  1.00  0.00    -0.205 N 
ATOM     69  CA  VAL A  10      19.783  -1.003  30.924  1.00  0.00    +0.103 C 
ATOM     70  C   VAL A  10      19.813  -2.327  30.179  1.00  0.00    +0.087 C 
ATOM     71  O   VAL A  10      20.415  -3.293  30.643  1.00  0.00    -0.396 OA
ATOM     72  CB  VAL A  10      18.666  -1.027  31.956  1.00  0.00    +0.020 C 
ATOM     73  CG1 VAL A  10      19.239  -1.112  33.369  1.00  0.00    +0.002 C 
ATOM     74  CG2 VAL A  10      17.828   0.245  31.862  1.00  0.00    +0.002 C 
ATOM     75  N   PHE A  11      19.162  -2.373  29.019  1.00  0.00    +0.427 N 
ATOM     76  CA  PHE A  11      18.224  -3.451  28.717  1.00  0.00    -0.084 C 
ATOM     77  C   PHE A  11      18.965  -4.705  28.283  1.00  0.00    +0.051 C 
ATOM     78  O   PHE A  11      18.708  -5.791  28.797  1.00  0.00    -0.220 OA
ATOM     79  CB  PHE A  11      17.252  -3.032  27.623  1.00  0.00    -0.010 C 
ATOM     80  CG  PHE A  11      15.869  -2.739  28.120  1.00  0.00    -0.026 A 
ATOM     81  CD1 PHE A  11      14.980  -3.782  28.357  1.00  0.00    -0.004 A 
ATOM     82  CE1 PHE A  11      13.698  -3.510  28.818  1.00  0.00    -0.000 A 
ATOM     83  CD2 PHE A  11      15.476  -1.425  28.348  1.00  0.00    -0.004 A 
ATOM     84  CE2 PHE A  11      14.193  -1.154  28.811  1.00  0.00    -0.000 A 
ATOM     85  CZ  PHE A  11      13.303  -2.197  29.045  1.00  0.00    -0.000 A 
ATOM     86  N   PHE A  12      19.886  -4.554  27.336  1.00  0.00    -0.355 NA
ATOM     87  CA  PHE A  12      20.042  -5.537  26.265  1.00  0.00    +0.009 C 
ATOM     88  C   PHE A  12      21.098  -6.567  26.631  1.00  0.00    +0.154 C 
ATOM     89  O   PHE A  12      21.235  -7.587  25.956  1.00  0.00    -0.181 OA
ATOM     90  CB  PHE A  12      20.424  -4.860  24.960  1.00  0.00    +0.003 C 
ATOM     91  CG  PHE A  12      19.313  -4.063  24.341  1.00  0.00    +0.033 C 
ATOM     92  CD1 PHE A  12      18.432  -4.671  23.454  1.00  0.00    +0.039 C 
ATOM     93  CE1 PHE A  12      17.404  -3.934  22.881  1.00  0.00    -0.030 C 
ATOM     94  CD2 PHE A  12      19.165  -2.716  24.655  1.00  0.00    +0.117 C 
ATOM     95  CE2 PHE A  12      18.136  -1.979  24.083  1.00  0.00    +0.055 C 
ATOM     96  CZ  PHE A  12      17.256  -2.586  23.195  1.00  0.00    -0.028 C 
ATOM     97  N   ALA A  13      21.844  -6.302  27.700  1.00  0.00    -0.203 NA
ATOM     98  CA  ALA A  13      23.087  -7.023  27.958  1.00  0.00    +0.151 C 
ATOM     99  C   ALA A  13      22.817  -8.490  28.248  1.00  0.00    +0.258 C 
ATOM    100  O   ALA A  13      23.625  -9.354  27.908  1.00  0.00    -0.272 OA
ATOM    101  CB  ALA A  13      23.838  -6.405  29.125  1.00  0.00    +0.029 C 
ATOM    102  N   GLY A  14      21.681  -8.774  28.879  1.00  0.00    -0.194 N 
ATOM    103  CA  GLY A  14      21.227 -10.150  29.045  1.00  0.00    +0.201 C 
ATOM    104  C   GLY A  14      20.516 -10.642  27.794  1.00  0.00    +0.264 C 
ATOM    105  O   GLY A  14      20.296  -9.873  26.859  1.00  0.00    -0.271 OA
ATOM    106  N   SER A  15      20.159 -11.924  27.775  1.00  0.00    -0.194 N 
ATOM    107  CA  SER A  15      19.244 -12.442  26.762  1.00  0.00    +0.205 C 
ATOM    108  C   SER A  15      17.795 -12.244  27.176  1.00  0.00    +0.264 C 
ATOM    109  O   SER A  15      17.502 -12.045  28.355  1.00  0.00    -0.271 OA
ATOM    110  CB  SER A  15      19.503 -13.919  26.512  1.00  0.00    +0.213 C 
ATOM    111  OG  SER A  15      19.222 -14.682  27.673  1.00  0.00    -0.218 OA
ATOM    112  N   SER A  16      16.886 -12.298  26.207  1.00  0.00    -0.194 N 
ATOM    113  CA  SER A  16      15.460 -12.388  26.506  1.00  0.00    +0.205 C 
ATOM    114  C   SER A  16      15.069 -13.800  26.913  1.00  0.00    +0.264 C 
ATOM    115  O   SER A  16      15.595 -14.773  26.375  1.00  0.00    -0.271 OA
ATOM    116  CB  SER A  16      14.632 -11.960  25.306  1.00  0.00    +0.213 C 
ATOM    117  OG  SER A  16      15.013 -10.667  24.868  1.00  0.00    -0.218 OA
ATOM    118  N   ASP A  17      14.146 -13.911  27.865  1.00  0.00    -0.196 N 
ATOM    119  CA  ASP A  17      13.227 -15.046  27.902  1.00  0.00    +0.184 C 
ATOM    120  C   ASP A  17      11.885 -14.680  27.291  1.00  0.00    +0.262 C 
ATOM    121  O   ASP A  17      11.565 -13.502  27.145  1.00  0.00    -0.271 OA
ATOM    122  CB  ASP A  17      13.020 -15.530  29.328  1.00  0.00    +0.145 C 
ATOM    123  CG  ASP A  17      14.297 -16.047  29.972  1.00  0.00    +0.367 C 
ATOM    124  OD1 ASP A  17      15.377 -15.949  29.351  1.00  0.00    -0.246 OA
ATOM    125  OD2 ASP A  17      14.219 -16.558  31.111  1.00  0.00    -0.246 OA
ATOM    126  N   ALA A  18      11.098 -15.692  26.932  1.00  0.00    -0.196 N 
ATOM    127  CA  ALA A  18       9.644 -15.570  26.959  1.00  0.00    +0.173 C 
ATOM    128  C   ALA A  18       9.010 -16.746  27.684  1.00  0.00    +0.262 C 
ATOM    129  O   ALA A  18       9.309 -17.900  27.381  1.00  0.00    -0.271 OA
ATOM    130  CB  ALA A  18       9.082 -15.479  25.550  1.00  0.00    +0.033 C 
ATOM    131  N   ILE A  19       8.134 -16.456  28.642  1.00  0.00    -0.196 N 
ATOM    132  CA  ILE A  19       6.924 -17.249  28.831  1.00  0.00    +0.173 C 
ATOM    133  C   ILE A  19       5.707 -16.440  28.413  1.00  0.00    +0.262 C 
ATOM    134  O   ILE A  19       5.380 -15.435  29.042  1.00  0.00    -0.271 OA
ATOM    135  CB  ILE A  19       6.760 -17.702  30.273  1.00  0.00    +0.029 C 
ATOM    136  CG1 ILE A  19       7.993 -18.476  30.736  1.00  0.00    +0.002 C 
ATOM    137  CG2 ILE A  19       5.523 -18.586  30.417  1.00  0.00    +0.002 C 
ATOM    138  CD1 ILE A  19       7.888 -19.010  32.156  1.00  0.00    +0.000 C 
ATOM    139  N   ARG A  20       5.038 -16.874  27.349  1.00  0.00    -0.196 N 
ATOM    140  CA  ARG A  20       5.538 -16.656  25.995  1.00  0.00    +0.173 C 
ATOM    141  C   ARG A  20       5.197 -15.258  25.507  1.00  0.00    +0.262 C 
ATOM    142  O   ARG A  20       5.910 -14.692  24.680  1.00  0.00    -0.271 OA
ATOM    143  CB  ARG A  20       4.963 -17.684  25.033  1.00  0.00    +0.033 C 
ATOM    144  CG  ARG A  20       5.634 -19.045  25.117  1.00  0.00    +0.029 C 
ATOM    145  CD  ARG A  20       4.990 -20.049  24.174  1.00  0.00    +0.129 C 
ATOM    146  NE  ARG A  20       5.358 -21.421  24.515  1.00  0.00    -0.234 NA
ATOM    147  CZ  ARG A  20       4.555 -22.474  24.392  1.00  0.00    +0.284 C 
ATOM    148  NH1 ARG A  20       4.894 -23.651  24.911  1.00  0.00    -0.104 N 
ATOM    149  NH2 ARG A  20       3.399 -22.347  23.744  1.00  0.00    -0.104 N 
ATOM    150  N   ARG A  21       4.102 -14.698  26.016  1.00  0.00    -0.194 N 
ATOM    151  CA  ARG A  21       3.042 -14.180  25.158  1.00  0.00    +0.198 C 
ATOM    152  C   ARG A  21       3.276 -12.715  24.827  1.00  0.00    +0.384 C 
ATOM    153  O   ARG A  21       3.716 -11.945  25.677  1.00  0.00    -0.244 OA
ATOM    154  CB  ARG A  21       1.682 -14.342  25.817  1.00  0.00    +0.035 C 
ATOM    155  CG  ARG A  21       0.999 -15.662  25.500  1.00  0.00    +0.029 C 
ATOM    156  CD  ARG A  21      -0.391 -15.739  26.112  1.00  0.00    +0.129 C 
ATOM    157  NE  ARG A  21      -0.429 -16.652  27.251  1.00  0.00    -0.234 NA
ATOM    158  CZ  ARG A  21      -1.301 -16.581  28.252  1.00  0.00    +0.284 C 
ATOM    159  NH1 ARG A  21      -2.203 -15.606  28.297  1.00  0.00    -0.104 N 
ATOM    160  NH2 ARG A  21      -1.267 -17.494  29.218  1.00  0.00    -0.104 N 
ATOM    161  OXT ARG A  21       3.028 -12.281  23.703  1.00  0.00    -0.244 OA
ATOM    162  H   MET A   1      14.172  -7.661  17.980  1.00  0.00    +0.000 HD
ATOM    163  H   MET A   1      14.653  -6.120  17.571  1.00  0.00    +0.000 HD
ATOM    164  H   LYS A   2      12.900  -4.914  19.829  1.00  0.00    +0.000 HD
ATOM    165  H   LYS A   2       8.424   0.367  20.099  1.00  0.00    +0.000 HD
ATOM    166  H   GLN A   3      14.068  -5.687  22.161  1.00  0.00    +0.000 HD
ATOM    167  H   GLN A   3      13.141  -9.588  25.465  1.00  0.00    +0.000 HD
ATOM    168  H   GLN A   3      11.665 -10.322  25.027  1.00  0.00    +0.000 HD
ATOM    169  H   ALA A   4      16.343  -5.495  23.152  1.00  0.00    +0.000 HD
ATOM    170  H   ASN A   6      22.082  -9.266  23.238  1.00  0.00    +0.000 HD
ATOM    171  H   ALA A   7      21.385  -4.661  23.353  1.00  0.00    +0.000 HD
ATOM    172  H   LEU A   9      23.301  -0.301  27.796  1.00  0.00    +0.000 HD
ATOM    173  H   VAL A  10      18.805   0.642  30.005  1.00  0.00    +0.000 HD
ATOM    174  H   PHE A  11      19.472  -5.869  28.204  1.00  0.00    +0.000 HD
ATOM    175  H   ALA A  13      22.092  -5.314  27.641  1.00  0.00    +0.000 HD
ATOM    176  H   GLY A  14      21.136  -8.039  29.243  1.00  0.00    +0.000 HD
ATOM    177  H   SER A  15      20.519 -12.536  28.457  1.00  0.00    +0.000 HD
ATOM    178  H   SER A  15      18.289 -14.572  27.914  1.00  0.00    +0.000 HD
ATOM    179  H   SER A  16      17.181 -12.277  25.267  1.00  0.00    +0.000 HD
ATOM    180  H   SER A  16      14.868 -10.027  25.583  1.00  0.00    +0.000 HD
ATOM    181  H   ASP A  17      14.081 -13.215  28.557  1.00  0.00    +0.000 HD
ATOM    182  H   ASP A  17      13.390 -16.614  31.543  1.00  0.00    +0.000 HD
ATOM    183  H   ALA A  18      11.505 -16.540  26.642  1.00  0.00    +0.000 HD
ATOM    184  H   ILE A  19       8.307 -15.690  29.236  1.00  0.00    +0.000 HD
ATOM    185  H   ARG A  20       4.187 -17.353  27.477  1.00  0.00    +0.000 HD
ATOM    186  H   ARG A  20       5.748 -23.749  25.391  1.00  0.00    +0.000 HD
ATOM    187  H   ARG A  20       4.293 -24.423  24.814  1.00  0.00    +0.000 HD
ATOM    188  H   ARG A  20       2.800 -23.122  23.650  1.00  0.00    +0.000 HD
ATOM    189  H   ARG A  20       3.144 -21.478  23.359  1.00  0.00    +0.000 HD
ATOM    190  H   ARG A  21       4.006 -14.631  26.993  1.00  0.00    +0.000 HD
ATOM    191  H   ARG A  21       3.909 -12.259  26.539  1.00  0.00    +0.000 HD
ATOM    192  H   ARG A  21      -2.231 -14.928  27.583  1.00  0.00    +0.000 HD
ATOM    193  H   ARG A  21      -2.844 -15.562  29.043  1.00  0.00    +0.000 HD
ATOM    194  H   ARG A  21      -0.600 -18.218  29.189  1.00  0.00    +0.000 HD
ATOM    195  H   ARG A  21      -1.909 -17.447  29.963  1.00  0.00    +0.000 HD
ENDROOT
TORSDOF 0
