REMARK  Name = /var/folders/yp/yjbh3p597675h2qddgqr02y00000gn/T/tmp671ztlw4.pdb
REMARK     285 UNITARY VALUES FOR THE UNIT CELL AUTOMATICALLY SET
REMARK     285 BY MDANALYSIS PDBWRITER BECAUSE UNIT CELL INFORMATION
REMARK     285 WAS MISSING.
REMARK     285 PROTEIN DATA BANK CONVENTIONS REQUIRE THAT
REMARK     285 CRYST1 RECORD IS INCLUDED, BUT THE VALUES ON
REMARK     285 THIS RECORD ARE MEANINGLESS.
REMARK     285 UNITARY VALUES FOR THE UNIT CELL AUTOMATICALLY SET
REMARK     285 BY MDANALYSIS PDBWRITER BECAUSE UNIT CELL INFORMATION
REMARK     285 WAS MISSING.
REMARK     285 PROTEIN DATA BANK CONVENTIONS REQUIRE THAT
REMARK     285 CRYST1 RECORD IS INCLUDED, BUT THE VALUES ON
REMARK     285 THIS RECORD ARE MEANINGLESS.
REMARK                            x       y       z     vdW  Elec       q    Type
REMARK                         _______ _______ _______ _____ _____    ______ ____
ROOT
ATOM      1  N   MET A   1       4.203   8.273   5.782  1.00  0.00    -0.123 NA
ATOM      2  CA  MET A   1       3.705   9.639   5.925  1.00  0.00    +0.168 C 
ATOM      3  C   MET A   1       4.432  10.585   4.984  1.00  0.00    +0.214 C 
ATOM      4  O   MET A   1       5.511  10.266   4.488  1.00  0.00    -0.460 OA
ATOM      5  CB  MET A   1       3.864  10.125   7.357  1.00  0.00    +0.040 C 
ATOM      6  CG  MET A   1       3.036   9.342   8.363  1.00  0.00    +0.060 C 
ATOM      7  SD  MET A   1       1.882  10.389   9.283  1.00  0.00    -0.139 S 
ATOM      8  CE  MET A   1       1.150  11.327   7.946  1.00  0.00    +0.069 C 
ATOM      9  N   LYS A   2       3.842  11.751   4.739  1.00  0.00    -0.233 NA
ATOM     10  CA  LYS A   2       4.478  12.762   3.898  1.00  0.00    +0.183 C 
ATOM     11  C   LYS A   2       5.700  13.352   4.584  1.00  0.00    +0.264 C 
ATOM     12  O   LYS A   2       6.447  14.118   3.976  1.00  0.00    -0.271 OA
ATOM     13  CB  LYS A   2       3.500  13.876   3.558  1.00  0.00    +0.034 C 
ATOM     14  CG  LYS A   2       2.958  13.806   2.140  1.00  0.00    +0.003 C 
ATOM     15  CD  LYS A   2       4.073  13.805   1.109  1.00  0.00    +0.002 C 
ATOM     16  CE  LYS A   2       4.540  12.451   0.821  1.00  0.00    +0.121 C 
ATOM     17  NZ  LYS A   2       5.680  12.157   0.202  1.00  0.00    -0.131 NA
ATOM     18  N   GLN A   3       5.906  12.996   5.848  1.00  0.00    -0.196 N 
ATOM     19  CA  GLN A   3       7.079  13.453   6.586  1.00  0.00    +0.173 C 
ATOM     20  C   GLN A   3       8.334  12.739   6.113  1.00  0.00    +0.261 C 
ATOM     21  O   GLN A   3       9.446  13.208   6.349  1.00  0.00    -0.271 OA
ATOM     22  CB  GLN A   3       6.900  13.233   8.079  1.00  0.00    +0.041 C 
ATOM     23  CG  GLN A   3       6.141  14.349   8.777  1.00  0.00    +0.091 C 
ATOM     24  CD  GLN A   3       4.647  14.311   8.493  1.00  0.00    +0.261 C 
ATOM     25  OE1 GLN A   3       4.144  15.052   7.637  1.00  0.00    -0.272 OA
ATOM     26  NE2 GLN A   3       3.930  13.451   9.210  1.00  0.00    -0.088 N 
ATOM     27  N   ALA A   4       8.157  11.602   5.446  1.00  0.00    -0.202 N 
ATOM     28  CA  ALA A   4       9.292  10.816   4.969  1.00  0.00    +0.142 C 
ATOM     29  C   ALA A   4       9.142  10.477   3.495  1.00  0.00    +0.236 C 
ATOM     30  O   ALA A   4       8.028  10.384   2.984  1.00  0.00    -0.245 OA
ATOM     31  CB  ALA A   4       9.434   9.534   5.772  1.00  0.00    +0.028 C 
ATOM     32  N   VAL A   5      10.267  10.293   2.809  1.00  0.00    -0.181 NA
ATOM     33  CA  VAL A   5      10.273   9.571   1.541  1.00  0.00    +0.153 C 
ATOM     34  C   VAL A   5       9.901   8.116   1.774  1.00  0.00    +0.258 C 
ATOM     35  O   VAL A   5      10.595   7.404   2.499  1.00  0.00    -0.272 OA
ATOM     36  CB  VAL A   5      11.626   9.644   0.852  1.00  0.00    +0.025 C 
ATOM     37  CG1 VAL A   5      12.026   8.277   0.298  1.00  0.00    +0.002 C 
ATOM     38  CG2 VAL A   5      11.579  10.629  -0.313  1.00  0.00    +0.002 C 
ATOM     39  N   ASN A   6       8.808   7.673   1.161  1.00  0.00    -0.196 N 
ATOM     40  CA  ASN A   6       8.292   8.323  -0.040  1.00  0.00    +0.182 C 
ATOM     41  C   ASN A   6       7.766   9.718   0.263  1.00  0.00    +0.269 C 
ATOM     42  O   ASN A   6       7.860  10.615  -0.574  1.00  0.00    -0.271 OA
ATOM     43  CB  ASN A   6       7.192   7.493  -0.679  1.00  0.00    +0.120 C 
ATOM     44  CG  ASN A   6       7.572   6.028  -0.820  1.00  0.00    +0.263 C 
ATOM     45  OD1 ASN A   6       8.115   5.614  -1.844  1.00  0.00    -0.272 OA
ATOM     46  ND2 ASN A   6       7.284   5.239   0.211  1.00  0.00    -0.088 N 
ATOM     47  N   ALA A   7       7.213   9.900   1.457  1.00  0.00    -0.154 N 
ATOM     48  CA  ALA A   7       6.049   9.127   1.881  1.00  0.00    +0.224 C 
ATOM     49  C   ALA A   7       4.828   9.475   1.042  1.00  0.00    +0.266 C 
ATOM     50  O   ALA A   7       3.840   8.743   1.046  1.00  0.00    -0.271 OA
ATOM     51  CB  ALA A   7       5.742   9.372   3.349  1.00  0.00    +0.238 C 
ATOM     52  N   LEU A   8       4.897  10.593   0.325  1.00  0.00    -0.195 N 
ATOM     53  CA  LEU A   8       3.944  11.681   0.523  1.00  0.00    +0.190 C 
ATOM     54  C   LEU A   8       2.988  11.785  -0.652  1.00  0.00    +0.263 C 
ATOM     55  O   LEU A   8       3.418  11.919  -1.797  1.00  0.00    -0.271 OA
ATOM     56  CB  LEU A   8       4.670  13.005   0.706  1.00  0.00    +0.020 C 
ATOM     57  CG  LEU A   8       5.236  13.275   2.102  1.00  0.00    +0.001 C 
ATOM     58  CD1 LEU A   8       5.278  14.774   2.374  1.00  0.00    +0.000 C 
ATOM     59  CD2 LEU A   8       6.734  12.992   2.135  1.00  0.00    +0.000 C 
ATOM     60  N   LEU A   9       1.689  11.724  -0.373  1.00  0.00    -0.196 N 
ATOM     61  CA  LEU A   9       0.680  11.788  -1.426  1.00  0.00    +0.177 C 
ATOM     62  C   LEU A   9       0.565  13.199  -1.981  1.00  0.00    +0.262 C 
ATOM     63  O   LEU A   9       0.287  14.141  -1.242  1.00  0.00    -0.271 OA
ATOM     64  CB  LEU A   9      -0.674  11.337  -0.904  1.00  0.00    +0.051 C 
ATOM     65  CG  LEU A   9      -0.799   9.853  -0.552  1.00  0.00    +0.007 C 
ATOM     66  CD1 LEU A   9      -2.217   9.365  -0.819  1.00  0.00    +0.007 C 
ATOM     67  CD2 LEU A   9      -0.768   9.657   0.960  1.00  0.00    +0.000 C 
ATOM     68  N   VAL A  10       0.782  13.346  -3.285  1.00  0.00    -0.196 N 
ATOM     69  CA  VAL A  10       0.121  14.399  -4.052  1.00  0.00    +0.173 C 
ATOM     70  C   VAL A  10      -1.329  14.020  -4.304  1.00  0.00    +0.261 C 
ATOM     71  O   VAL A  10      -2.188  14.889  -4.435  1.00  0.00    -0.271 OA
ATOM     72  CB  VAL A  10       0.818  14.657  -5.378  1.00  0.00    +0.029 C 
ATOM     73  CG1 VAL A  10       0.131  15.790  -6.135  1.00  0.00    +0.002 C 
ATOM     74  CG2 VAL A  10       2.273  15.057  -5.147  1.00  0.00    +0.002 C 
ATOM     75  N   PHE A  11      -1.601  12.720  -4.372  1.00  0.00    -0.201 N 
ATOM     76  CA  PHE A  11      -2.956  12.240  -4.634  1.00  0.00    +0.147 C 
ATOM     77  C   PHE A  11      -3.811  12.333  -3.381  1.00  0.00    +0.246 C 
ATOM     78  O   PHE A  11      -5.027  12.498  -3.464  1.00  0.00    -0.202 OA
ATOM     79  CB  PHE A  11      -2.936  10.804  -5.131  1.00  0.00    +0.052 C 
ATOM     80  CG  PHE A  11      -2.513  10.663  -6.563  1.00  0.00    -0.020 A 
ATOM     81  CD1 PHE A  11      -1.163  10.679  -6.895  1.00  0.00    -0.004 A 
ATOM     82  CE1 PHE A  11      -0.773  10.549  -8.222  1.00  0.00    -0.000 A 
ATOM     83  CD2 PHE A  11      -3.471  10.516  -7.559  1.00  0.00    -0.004 A 
ATOM     84  CE2 PHE A  11      -3.081  10.386  -8.886  1.00  0.00    -0.000 A 
ATOM     85  CZ  PHE A  11      -1.731  10.402  -9.218  1.00  0.00    -0.000 A 
ATOM     86  N   PHE A  12      -3.177  12.226  -2.217  1.00  0.00    -0.180 NA
ATOM     87  CA  PHE A  12      -3.747  11.469  -1.106  1.00  0.00    +0.157 C 
ATOM     88  C   PHE A  12      -4.461  12.394  -0.134  1.00  0.00    +0.258 C 
ATOM     89  O   PHE A  12      -5.177  11.934   0.754  1.00  0.00    -0.272 OA
ATOM     90  CB  PHE A  12      -2.670  10.690  -0.370  1.00  0.00    +0.047 C 
ATOM     91  CG  PHE A  12      -1.757  11.548   0.454  1.00  0.00    -0.025 A 
ATOM     92  CD1 PHE A  12      -2.285  12.418   1.400  1.00  0.00    -0.005 A 
ATOM     93  CE1 PHE A  12      -1.440  13.214   2.163  1.00  0.00    -0.000 A 
ATOM     94  CD2 PHE A  12      -0.381  11.471   0.273  1.00  0.00    -0.024 A 
ATOM     95  CE2 PHE A  12       0.466  12.266   1.037  1.00  0.00    -0.005 A 
ATOM     96  CZ  PHE A  12      -0.063  13.138   1.982  1.00  0.00    -0.000 A 
ATOM     97  N   ALA A  13      -4.265  13.699  -0.300  1.00  0.00    -0.202 N 
ATOM     98  CA  ALA A  13      -5.358  14.589  -0.678  1.00  0.00    +0.143 C 
ATOM     99  C   ALA A  13      -5.926  14.212  -2.036  1.00  0.00    +0.246 C 
ATOM    100  O   ALA A  13      -5.179  14.031  -2.997  1.00  0.00    -0.202 OA
ATOM    101  CB  ALA A  13      -4.892  16.035  -0.706  1.00  0.00    +0.028 C 
ATOM    102  N   GLY A  14      -7.249  14.095  -2.118  1.00  0.00    -0.178 NA
ATOM    103  CA  GLY A  14      -8.067  15.135  -2.736  1.00  0.00    +0.178 C 
ATOM    104  C   GLY A  14      -8.073  16.397  -1.887  1.00  0.00    +0.260 C 
ATOM    105  O   GLY A  14      -7.200  16.584  -1.040  1.00  0.00    -0.272 OA
ATOM    106  N   SER A  15      -9.058  17.263  -2.113  1.00  0.00    -0.194 N 
ATOM    107  CA  SER A  15      -9.241  18.442  -1.273  1.00  0.00    +0.205 C 
ATOM    108  C   SER A  15      -9.639  18.054   0.142  1.00  0.00    +0.264 C 
ATOM    109  O   SER A  15     -10.020  16.910   0.391  1.00  0.00    -0.271 OA
ATOM    110  CB  SER A  15     -10.296  19.361  -1.863  1.00  0.00    +0.213 C 
ATOM    111  OG  SER A  15     -11.515  18.666  -2.063  1.00  0.00    -0.218 OA
ATOM    112  N   SER A  16      -9.550  19.002   1.069  1.00  0.00    -0.194 N 
ATOM    113  CA  SER A  16     -10.500  19.075   2.176  1.00  0.00    +0.205 C 
ATOM    114  C   SER A  16     -11.861  19.557   1.704  1.00  0.00    +0.264 C 
ATOM    115  O   SER A  16     -12.270  20.675   2.018  1.00  0.00    -0.271 OA
ATOM    116  CB  SER A  16      -9.982  20.001   3.265  1.00  0.00    +0.213 C 
ATOM    117  OG  SER A  16      -8.931  19.388   3.989  1.00  0.00    -0.218 OA
ATOM    118  N   ASP A  17     -12.563  18.718   0.950  1.00  0.00    -0.196 N 
ATOM    119  CA  ASP A  17     -13.923  19.035   0.522  1.00  0.00    +0.184 C 
ATOM    120  C   ASP A  17     -14.929  18.694   1.609  1.00  0.00    +0.262 C 
ATOM    121  O   ASP A  17     -14.689  17.808   2.428  1.00  0.00    -0.271 OA
ATOM    122  CB  ASP A  17     -14.280  18.286  -0.751  1.00  0.00    +0.145 C 
ATOM    123  CG  ASP A  17     -13.539  18.804  -1.974  1.00  0.00    +0.367 C 
ATOM    124  OD1 ASP A  17     -13.038  17.987  -2.777  1.00  0.00    -0.246 OA
ATOM    125  OD2 ASP A  17     -13.457  20.041  -2.134  1.00  0.00    -0.246 OA
ATOM    126  N   ALA A  18     -16.057  19.399   1.620  1.00  0.00    -0.196 N 
ATOM    127  CA  ALA A  18     -17.259  18.901   2.283  1.00  0.00    +0.173 C 
ATOM    128  C   ALA A  18     -17.900  17.782   1.478  1.00  0.00    +0.262 C 
ATOM    129  O   ALA A  18     -18.496  18.028   0.431  1.00  0.00    -0.271 OA
ATOM    130  CB  ALA A  18     -18.266  20.020   2.486  1.00  0.00    +0.033 C 
ATOM    131  N   ILE A  19     -17.781  16.550   1.967  1.00  0.00    -0.196 N 
ATOM    132  CA  ILE A  19     -18.921  15.642   2.025  1.00  0.00    +0.173 C 
ATOM    133  C   ILE A  19     -19.679  15.852   3.326  1.00  0.00    +0.262 C 
ATOM    134  O   ILE A  19     -19.293  15.321   4.367  1.00  0.00    -0.271 OA
ATOM    135  CB  ILE A  19     -18.495  14.187   1.915  1.00  0.00    +0.029 C 
ATOM    136  CG1 ILE A  19     -19.714  13.266   1.924  1.00  0.00    +0.002 C 
ATOM    137  CG2 ILE A  19     -17.571  13.814   3.073  1.00  0.00    +0.002 C 
ATOM    138  CD1 ILE A  19     -20.140  12.819   3.312  1.00  0.00    +0.000 C 
ATOM    139  N   ARG A  20     -20.759  16.624   3.269  1.00  0.00    -0.196 N 
ATOM    140  CA  ARG A  20     -21.114  17.516   4.369  1.00  0.00    +0.173 C 
ATOM    141  C   ARG A  20     -21.728  16.741   5.523  1.00  0.00    +0.262 C 
ATOM    142  O   ARG A  20     -21.227  16.788   6.645  1.00  0.00    -0.271 OA
ATOM    143  CB  ARG A  20     -22.086  18.590   3.905  1.00  0.00    +0.033 C 
ATOM    144  CG  ARG A  20     -21.421  19.746   3.178  1.00  0.00    +0.026 C 
ATOM    145  CD  ARG A  20     -21.985  19.932   1.778  1.00  0.00    +0.115 C 
ATOM    146  NE  ARG A  20     -21.732  18.767   0.936  1.00  0.00    -0.204 N 
ATOM    147  CZ  ARG A  20     -22.137  18.639  -0.324  1.00  0.00    +0.260 C 
ATOM    148  NH1 ARG A  20     -22.547  19.699  -1.015  1.00  0.00    -0.110 NA
ATOM    149  NH2 ARG A  20     -22.131  17.439  -0.898  1.00  0.00    -0.087 N 
ATOM    150  N   ARG A  21     -22.815  16.025   5.249  1.00  0.00    -0.194 N 
ATOM    151  CA  ARG A  21     -23.961  16.612   4.561  1.00  0.00    +0.198 C 
ATOM    152  C   ARG A  21     -25.204  16.566   5.435  1.00  0.00    +0.384 C 
ATOM    153  O   ARG A  21     -25.628  17.587   5.973  1.00  0.00    -0.244 OA
ATOM    154  CB  ARG A  21     -24.234  15.892   3.251  1.00  0.00    +0.035 C 
ATOM    155  CG  ARG A  21     -23.594  16.553   2.041  1.00  0.00    +0.026 C 
ATOM    156  CD  ARG A  21     -24.056  15.917   0.740  1.00  0.00    +0.115 C 
ATOM    157  NE  ARG A  21     -24.107  16.889  -0.347  1.00  0.00    -0.204 N 
ATOM    158  CZ  ARG A  21     -23.420  16.795  -1.482  1.00  0.00    +0.260 C 
ATOM    159  NH1 ARG A  21     -22.125  16.488  -1.468  1.00  0.00    -0.087 N 
ATOM    160  NH2 ARG A  21     -24.032  17.012  -2.643  1.00  0.00    -0.110 NA
ATOM    161  OXT ARG A  21     -25.801  15.505   5.616  1.00  0.00    -0.244 OA
ATOM    162  H   MET A   1       4.086   7.969   4.815  1.00  0.00    +0.000 HD
ATOM    163  H   MET A   1       3.678   7.654   6.399  1.00  0.00    +0.000 HD
ATOM    164  H   LYS A   2       5.583  12.343  -0.796  1.00  0.00    +0.000 HD
ATOM    165  H   LYS A   2       5.901  11.171   0.345  1.00  0.00    +0.000 HD
ATOM    166  H   GLN A   3       5.252  12.412   6.295  1.00  0.00    +0.000 HD
ATOM    167  H   GLN A   3       2.958  13.383   9.069  1.00  0.00    +0.000 HD
ATOM    168  H   GLN A   3       4.370  12.882   9.881  1.00  0.00    +0.000 HD
ATOM    169  H   ALA A   4       7.242  11.284   5.269  1.00  0.00    +0.000 HD
ATOM    170  H   VAL A   5      10.640  11.222   2.615  1.00  0.00    +0.000 HD
ATOM    171  H   ASN A   6       8.336   6.890   1.525  1.00  0.00    +0.000 HD
ATOM    172  H   ASN A   6       6.849   5.614   1.011  1.00  0.00    +0.000 HD
ATOM    173  H   ASN A   6       7.507   4.281   0.175  1.00  0.00    +0.000 HD
ATOM    174  H   LEU A   8       5.605  10.689  -0.353  1.00  0.00    +0.000 HD
ATOM    175  H   LEU A   9       1.402  11.633   0.564  1.00  0.00    +0.000 HD
ATOM    176  H   VAL A  10       1.400  12.731  -3.742  1.00  0.00    +0.000 HD
ATOM    177  H   PHE A  11      -0.875  12.067  -4.244  1.00  0.00    +0.000 HD
ATOM    178  H   PHE A  12      -3.038  13.177  -1.877  1.00  0.00    +0.000 HD
ATOM    179  H   ALA A  13      -3.364  14.072  -0.166  1.00  0.00    +0.000 HD
ATOM    180  H   GLY A  14      -7.430  13.238  -2.640  1.00  0.00    +0.000 HD
ATOM    181  H   SER A  15      -9.676  17.105  -2.863  1.00  0.00    +0.000 HD
ATOM    182  H   SER A  15     -11.842  18.334  -1.213  1.00  0.00    +0.000 HD
ATOM    183  H   SER A  16      -8.829  19.670   1.008  1.00  0.00    +0.000 HD
ATOM    184  H   SER A  16      -9.257  18.578   4.409  1.00  0.00    +0.000 HD
ATOM    185  H   ASP A  17     -12.157  17.865   0.674  1.00  0.00    +0.000 HD
ATOM    186  H   ASP A  17     -13.121  17.066  -2.621  1.00  0.00    +0.000 HD
ATOM    187  H   ALA A  18     -16.082  20.275   1.172  1.00  0.00    +0.000 HD
ATOM    188  H   ILE A  19     -16.905  16.245   2.296  1.00  0.00    +0.000 HD
ATOM    189  H   ARG A  20     -21.331  16.593   2.468  1.00  0.00    +0.000 HD
ATOM    190  H   ARG A  20     -21.224  18.021   1.329  1.00  0.00    +0.000 HD
ATOM    191  H   ARG A  20     -22.845  19.593  -1.947  1.00  0.00    +0.000 HD
ATOM    192  H   ARG A  20     -22.137  16.973  -0.030  1.00  0.00    +0.000 HD
ATOM    193  H   ARG A  21     -22.847  15.077   5.516  1.00  0.00    +0.000 HD
ATOM    194  H   ARG A  21     -24.693  17.673  -0.232  1.00  0.00    +0.000 HD
ATOM    195  H   ARG A  21     -21.504  15.795  -1.789  1.00  0.00    +0.000 HD
ATOM    196  H   ARG A  21     -24.990  17.240  -2.658  1.00  0.00    +0.000 HD
ATOM    197  H   ARG A  21     -25.491  14.719   5.214  1.00  0.00    +0.000 HD
ENDROOT
TORSDOF 0
