REMARK  Name = /var/folders/yp/yjbh3p597675h2qddgqr02y00000gn/T/tmp07q03x7p.pdb
REMARK   1 CREATED WITH OPENMM 8.6.1, 2026-10-07
REMARK                            x       y       z     vdW  Elec       q    Type
REMARK                         _______ _______ _______ _____ _____    ______ ____
ROOT
ATOM      1  N   MET A   1       3.998  15.299   7.379  1.00  0.00    -0.123 NA
ATOM      2  CA  MET A   1       2.540  15.421   7.668  1.00  0.00    +0.170 C 
ATOM      3  C   MET A   1       1.857  14.060   7.654  1.00  0.00    +0.259 C 
ATOM      4  O   MET A   1       2.301  13.146   8.348  1.00  0.00    -0.272 OA
ATOM      5  CB  MET A   1       1.769  16.430   6.783  1.00  0.00    +0.040 C 
ATOM      6  CG  MET A   1       2.330  17.842   6.832  1.00  0.00    +0.060 C 
ATOM      7  SD  MET A   1       3.361  18.372   5.444  1.00  0.00    -0.139 S 
ATOM      8  CE  MET A   1       3.966  16.859   4.661  1.00  0.00    +0.069 C 
ATOM      9  N   LYS A   2       0.799  13.891   6.847  1.00  0.00    -0.197 N 
ATOM     10  CA  LYS A   2       0.149  12.591   6.651  1.00  0.00    +0.173 C 
ATOM     11  C   LYS A   2       1.036  11.616   5.895  1.00  0.00    +0.262 C 
ATOM     12  O   LYS A   2       0.853  10.407   6.010  1.00  0.00    -0.271 OA
ATOM     13  CB  LYS A   2      -1.166  12.753   5.881  1.00  0.00    +0.031 C 
ATOM     14  CG  LYS A   2      -2.357  13.040   6.787  1.00  0.00    +0.004 C 
ATOM     15  CD  LYS A   2      -2.313  14.461   7.362  1.00  0.00    +0.021 C 
ATOM     16  CE  LYS A   2      -3.624  14.912   7.992  1.00  0.00    +0.109 C 
ATOM     17  NZ  LYS A   2      -4.842  14.440   7.308  1.00  0.00    -0.131 NA
ATOM     18  N   GLN A   3       1.971  12.138   5.103  1.00  0.00    -0.196 N 
ATOM     19  CA  GLN A   3       2.702  11.328   4.135  1.00  0.00    +0.173 C 
ATOM     20  C   GLN A   3       3.663  10.356   4.804  1.00  0.00    +0.262 C 
ATOM     21  O   GLN A   3       3.916   9.292   4.240  1.00  0.00    -0.271 OA
ATOM     22  CB  GLN A   3       3.496  12.227   3.172  1.00  0.00    +0.041 C 
ATOM     23  CG  GLN A   3       2.607  12.997   2.189  1.00  0.00    +0.091 C 
ATOM     24  CD  GLN A   3       1.783  14.085   2.852  1.00  0.00    +0.261 C 
ATOM     25  OE1 GLN A   3       2.299  15.067   3.344  1.00  0.00    -0.272 OA
ATOM     26  NE2 GLN A   3       0.482  13.940   2.941  1.00  0.00    -0.088 N 
ATOM     27  N   ALA A   4       4.226  10.759   5.951  1.00  0.00    -0.196 N 
ATOM     28  CA  ALA A   4       5.655  10.605   6.198  1.00  0.00    +0.173 C 
ATOM     29  C   ALA A   4       6.120   9.171   5.987  1.00  0.00    +0.262 C 
ATOM     30  O   ALA A   4       5.412   8.218   6.330  1.00  0.00    -0.271 OA
ATOM     31  CB  ALA A   4       6.002  11.084   7.611  1.00  0.00    +0.033 C 
ATOM     32  N   VAL A   5       7.324   9.022   5.434  1.00  0.00    -0.196 N 
ATOM     33  CA  VAL A   5       7.836   7.693   5.106  1.00  0.00    +0.173 C 
ATOM     34  C   VAL A   5       7.965   6.862   6.353  1.00  0.00    +0.262 C 
ATOM     35  O   VAL A   5       7.699   5.691   6.279  1.00  0.00    -0.271 OA
ATOM     36  CB  VAL A   5       9.204   7.750   4.400  1.00  0.00    +0.029 C 
ATOM     37  CG1 VAL A   5      10.079   6.504   4.606  1.00  0.00    +0.002 C 
ATOM     38  CG2 VAL A   5       8.993   7.858   2.890  1.00  0.00    +0.002 C 
ATOM     39  N   ASN A   6       8.444   7.451   7.445  1.00  0.00    -0.196 N 
ATOM     40  CA  ASN A   6       9.600   6.903   8.161  1.00  0.00    +0.182 C 
ATOM     41  C   ASN A   6       9.252   6.115   9.405  1.00  0.00    +0.262 C 
ATOM     42  O   ASN A   6      10.124   5.451   9.969  1.00  0.00    -0.271 OA
ATOM     43  CB  ASN A   6      10.544   8.059   8.517  1.00  0.00    +0.120 C 
ATOM     44  CG  ASN A   6      11.020   8.836   7.308  1.00  0.00    +0.263 C 
ATOM     45  OD1 ASN A   6      11.765   8.336   6.478  1.00  0.00    -0.272 OA
ATOM     46  ND2 ASN A   6      10.604  10.074   7.172  1.00  0.00    -0.088 N 
ATOM     47  N   ALA A   7       7.994   6.164   9.833  1.00  0.00    -0.196 N 
ATOM     48  CA  ALA A   7       7.551   5.470  11.035  1.00  0.00    +0.173 C 
ATOM     49  C   ALA A   7       7.568   3.946  10.872  1.00  0.00    +0.262 C 
ATOM     50  O   ALA A   7       7.139   3.233  11.774  1.00  0.00    -0.271 OA
ATOM     51  CB  ALA A   7       6.153   5.969  11.406  1.00  0.00    +0.033 C 
ATOM     52  N   LEU A   8       8.006   3.437   9.721  1.00  0.00    -0.196 N 
ATOM     53  CA  LEU A   8       7.742   2.076   9.295  1.00  0.00    +0.173 C 
ATOM     54  C   LEU A   8       8.529   1.115  10.154  1.00  0.00    +0.262 C 
ATOM     55  O   LEU A   8       9.738   1.284  10.330  1.00  0.00    -0.271 OA
ATOM     56  CB  LEU A   8       8.078   1.862   7.813  1.00  0.00    +0.031 C 
ATOM     57  CG  LEU A   8       7.523   2.921   6.856  1.00  0.00    +0.002 C 
ATOM     58  CD1 LEU A   8       6.332   3.724   7.424  1.00  0.00    +0.000 C 
ATOM     59  CD2 LEU A   8       6.903   2.279   5.623  1.00  0.00    +0.000 C 
ATOM     60  N   LEU A   9       7.843   0.099  10.669  1.00  0.00    -0.196 N 
ATOM     61  CA  LEU A   9       8.497  -0.967  11.414  1.00  0.00    +0.173 C 
ATOM     62  C   LEU A   9       9.067  -1.984  10.447  1.00  0.00    +0.262 C 
ATOM     63  O   LEU A   9       8.373  -2.495   9.567  1.00  0.00    -0.271 OA
ATOM     64  CB  LEU A   9       7.550  -1.619  12.421  1.00  0.00    +0.031 C 
ATOM     65  CG  LEU A   9       7.063  -0.694  13.554  1.00  0.00    +0.002 C 
ATOM     66  CD1 LEU A   9       7.860   0.596  13.738  1.00  0.00    +0.000 C 
ATOM     67  CD2 LEU A   9       7.248  -1.388  14.901  1.00  0.00    +0.000 C 
ATOM     68  N   VAL A  10      10.361  -2.241  10.618  1.00  0.00    -0.196 N 
ATOM     69  CA  VAL A  10      11.356  -1.604   9.740  1.00  0.00    +0.173 C 
ATOM     70  C   VAL A  10      11.193  -1.989   8.279  1.00  0.00    +0.262 C 
ATOM     71  O   VAL A  10      11.414  -1.182   7.378  1.00  0.00    -0.271 OA
ATOM     72  CB  VAL A  10      12.781  -1.962  10.210  1.00  0.00    +0.029 C 
ATOM     73  CG1 VAL A  10      13.853  -1.355   9.299  1.00  0.00    +0.002 C 
ATOM     74  CG2 VAL A  10      13.036  -1.451  11.633  1.00  0.00    +0.002 C 
ATOM     75  N   PHE A  11      10.840  -3.251   8.066  1.00  0.00    -0.196 N 
ATOM     76  CA  PHE A  11      11.726  -4.189   7.371  1.00  0.00    +0.177 C 
ATOM     77  C   PHE A  11      11.479  -4.258   5.873  1.00  0.00    +0.262 C 
ATOM     78  O   PHE A  11      12.133  -5.020   5.162  1.00  0.00    -0.271 OA
ATOM     79  CB  PHE A  11      11.574  -5.580   7.994  1.00  0.00    +0.057 C 
ATOM     80  CG  PHE A  11      11.875  -5.625   9.473  1.00  0.00    -0.020 A 
ATOM     81  CD1 PHE A  11      10.922  -5.167  10.398  1.00  0.00    -0.004 A 
ATOM     82  CE1 PHE A  11      11.211  -5.165  11.769  1.00  0.00    -0.000 A 
ATOM     83  CD2 PHE A  11      13.098  -6.142   9.929  1.00  0.00    -0.004 A 
ATOM     84  CE2 PHE A  11      13.372  -6.179  11.305  1.00  0.00    -0.000 A 
ATOM     85  CZ  PHE A  11      12.435  -5.677  12.223  1.00  0.00    -0.000 A 
ATOM     86  N   PHE A  12      10.553  -3.449   5.383  1.00  0.00    -0.196 N 
ATOM     87  CA  PHE A  12      10.336  -3.223   3.969  1.00  0.00    +0.177 C 
ATOM     88  C   PHE A  12      10.464  -1.733   3.675  1.00  0.00    +0.262 C 
ATOM     89  O   PHE A  12       9.824  -0.890   4.306  1.00  0.00    -0.271 OA
ATOM     90  CB  PHE A  12       8.979  -3.782   3.524  1.00  0.00    +0.057 C 
ATOM     91  CG  PHE A  12       7.792  -3.210   4.269  1.00  0.00    -0.020 A 
ATOM     92  CD1 PHE A  12       7.645  -3.450   5.649  1.00  0.00    -0.004 A 
ATOM     93  CE1 PHE A  12       6.573  -2.896   6.355  1.00  0.00    -0.000 A 
ATOM     94  CD2 PHE A  12       6.827  -2.447   3.589  1.00  0.00    -0.004 A 
ATOM     95  CE2 PHE A  12       5.732  -1.920   4.293  1.00  0.00    -0.000 A 
ATOM     96  CZ  PHE A  12       5.611  -2.136   5.675  1.00  0.00    -0.000 A 
ATOM     97  N   ALA A  13      11.264  -1.433   2.657  1.00  0.00    -0.196 N 
ATOM     98  CA  ALA A  13      10.692  -0.981   1.400  1.00  0.00    +0.173 C 
ATOM     99  C   ALA A  13      11.262  -1.812   0.247  1.00  0.00    +0.262 C 
ATOM    100  O   ALA A  13      12.470  -1.812  -0.009  1.00  0.00    -0.271 OA
ATOM    101  CB  ALA A  13      10.964   0.508   1.179  1.00  0.00    +0.033 C 
ATOM    102  N   GLY A  14      10.358  -2.456  -0.479  1.00  0.00    -0.194 N 
ATOM    103  CA  GLY A  14      10.298  -2.284  -1.923  1.00  0.00    +0.201 C 
ATOM    104  C   GLY A  14       9.686  -3.483  -2.622  1.00  0.00    +0.264 C 
ATOM    105  O   GLY A  14       9.176  -4.410  -1.986  1.00  0.00    -0.271 OA
ATOM    106  N   SER A  15       9.736  -3.461  -3.949  1.00  0.00    -0.194 N 
ATOM    107  CA  SER A  15       9.112  -4.494  -4.770  1.00  0.00    +0.205 C 
ATOM    108  C   SER A  15       9.692  -5.884  -4.481  1.00  0.00    +0.264 C 
ATOM    109  O   SER A  15      10.911  -6.084  -4.472  1.00  0.00    -0.271 OA
ATOM    110  CB  SER A  15       9.251  -4.129  -6.252  1.00  0.00    +0.213 C 
ATOM    111  OG  SER A  15      10.595  -4.202  -6.688  1.00  0.00    -0.218 OA
ATOM    112  N   SER A  16       8.793  -6.852  -4.294  1.00  0.00    -0.194 N 
ATOM    113  CA  SER A  16       8.795  -8.044  -5.147  1.00  0.00    +0.205 C 
ATOM    114  C   SER A  16       8.447  -7.649  -6.581  1.00  0.00    +0.264 C 
ATOM    115  O   SER A  16       7.554  -6.832  -6.818  1.00  0.00    -0.271 OA
ATOM    116  CB  SER A  16       7.777  -9.072  -4.660  1.00  0.00    +0.213 C 
ATOM    117  OG  SER A  16       8.278  -9.739  -3.519  1.00  0.00    -0.218 OA
ATOM    118  N   ASP A  17       9.197  -8.193  -7.533  1.00  0.00    -0.196 N 
ATOM    119  CA  ASP A  17       9.543  -7.465  -8.750  1.00  0.00    +0.184 C 
ATOM    120  C   ASP A  17       8.720  -7.909  -9.956  1.00  0.00    +0.262 C 
ATOM    121  O   ASP A  17       8.959  -8.978 -10.524  1.00  0.00    -0.271 OA
ATOM    122  CB  ASP A  17      11.050  -7.628  -8.997  1.00  0.00    +0.145 C 
ATOM    123  CG  ASP A  17      11.609  -6.569  -9.948  1.00  0.00    +0.367 C 
ATOM    124  OD1 ASP A  17      11.004  -6.295 -11.007  1.00  0.00    -0.246 OA
ATOM    125  OD2 ASP A  17      12.677  -6.000  -9.627  1.00  0.00    -0.246 OA
ATOM    126  N   ALA A  18       7.779  -7.066 -10.375  1.00  0.00    -0.196 N 
ATOM    127  CA  ALA A  18       7.249  -7.097 -11.733  1.00  0.00    +0.173 C 
ATOM    128  C   ALA A  18       7.630  -5.809 -12.461  1.00  0.00    +0.262 C 
ATOM    129  O   ALA A  18       7.174  -4.722 -12.096  1.00  0.00    -0.271 OA
ATOM    130  CB  ALA A  18       5.733  -7.298 -11.704  1.00  0.00    +0.033 C 
ATOM    131  N   ILE A  19       8.430  -5.929 -13.518  1.00  0.00    -0.196 N 
ATOM    132  CA  ILE A  19       8.641  -4.852 -14.485  1.00  0.00    +0.173 C 
ATOM    133  C   ILE A  19       7.960  -5.235 -15.789  1.00  0.00    +0.262 C 
ATOM    134  O   ILE A  19       8.344  -6.207 -16.442  1.00  0.00    -0.271 OA
ATOM    135  CB  ILE A  19      10.144  -4.566 -14.687  1.00  0.00    +0.029 C 
ATOM    136  CG1 ILE A  19      10.605  -3.512 -13.658  1.00  0.00    +0.002 C 
ATOM    137  CG2 ILE A  19      10.526  -4.063 -16.092  1.00  0.00    +0.002 C 
ATOM    138  CD1 ILE A  19      12.094  -3.160 -13.761  1.00  0.00    +0.000 C 
ATOM    139  N   ARG A  20       7.012  -4.402 -16.221  1.00  0.00    -0.196 N 
ATOM    140  CA  ARG A  20       6.813  -4.149 -17.656  1.00  0.00    +0.173 C 
ATOM    141  C   ARG A  20       7.870  -3.191 -18.211  1.00  0.00    +0.262 C 
ATOM    142  O   ARG A  20       8.192  -3.240 -19.396  1.00  0.00    -0.271 OA
ATOM    143  CB  ARG A  20       5.416  -3.550 -17.891  1.00  0.00    +0.033 C 
ATOM    144  CG  ARG A  20       4.332  -4.615 -18.037  1.00  0.00    +0.029 C 
ATOM    145  CD  ARG A  20       3.012  -3.990 -18.496  1.00  0.00    +0.129 C 
ATOM    146  NE  ARG A  20       2.300  -3.298 -17.407  1.00  0.00    -0.234 NA
ATOM    147  CZ  ARG A  20       1.191  -2.593 -17.547  1.00  0.00    +0.284 C 
ATOM    148  NH1 ARG A  20       0.654  -2.381 -18.717  1.00  0.00    -0.104 N 
ATOM    149  NH2 ARG A  20       0.605  -2.082 -16.504  1.00  0.00    -0.104 N 
ATOM    150  N   ARG A  21       8.331  -2.279 -17.353  1.00  0.00    -0.194 N 
ATOM    151  CA  ARG A  21       8.518  -0.861 -17.672  1.00  0.00    +0.198 C 
ATOM    152  C   ARG A  21       9.973  -0.412 -17.657  1.00  0.00    +0.384 C 
ATOM    153  O   ARG A  21      10.800  -1.030 -18.351  1.00  0.00    -0.244 OA
ATOM    154  CB  ARG A  21       7.665  -0.028 -16.696  1.00  0.00    +0.035 C 
ATOM    155  CG  ARG A  21       6.189  -0.425 -16.718  1.00  0.00    +0.029 C 
ATOM    156  CD  ARG A  21       5.260   0.775 -16.570  1.00  0.00    +0.129 C 
ATOM    157  NE  ARG A  21       4.053   0.596 -17.392  1.00  0.00    -0.234 NA
ATOM    158  CZ  ARG A  21       3.284   1.568 -17.836  1.00  0.00    +0.284 C 
ATOM    159  NH1 ARG A  21       3.455   2.805 -17.462  1.00  0.00    -0.104 N 
ATOM    160  NH2 ARG A  21       2.322   1.308 -18.672  1.00  0.00    -0.104 N 
ATOM    161  OXT ARG A  21      10.300   0.576 -16.970  1.00  0.00    -0.244 OA
ATOM    162  H   MET A   1       4.426  16.225   7.395  1.00  0.00    +0.000 HD
ATOM    163  H   MET A   1       4.128  14.880   6.458  1.00  0.00    +0.000 HD
ATOM    164  H   LYS A   2       0.444  14.673   6.366  1.00  0.00    +0.000 HD
ATOM    165  H   LYS A   2      -4.880  13.421   7.346  1.00  0.00    +0.000 HD
ATOM    166  H   LYS A   2      -4.824  14.743   6.334  1.00  0.00    +0.000 HD
ATOM    167  H   GLN A   3       2.175  13.099   5.173  1.00  0.00    +0.000 HD
ATOM    168  H   GLN A   3       0.047  13.149   2.548  1.00  0.00    +0.000 HD
ATOM    169  H   GLN A   3      -0.059  14.622   3.401  1.00  0.00    +0.000 HD
ATOM    170  H   ALA A   4       3.661  11.169   6.645  1.00  0.00    +0.000 HD
ATOM    171  H   VAL A   5       7.874   9.816   5.245  1.00  0.00    +0.000 HD
ATOM    172  H   ASN A   6       8.014   8.271   7.779  1.00  0.00    +0.000 HD
ATOM    173  H   ASN A   6      10.894  10.608   6.398  1.00  0.00    +0.000 HD
ATOM    174  H   ASN A   6      10.002  10.468   7.844  1.00  0.00    +0.000 HD
ATOM    175  H   ALA A   7       7.338   6.688   9.319  1.00  0.00    +0.000 HD
ATOM    176  H   LEU A   8       8.537   4.016   9.128  1.00  0.00    +0.000 HD
ATOM    177  H   LEU A   9       6.867   0.067  10.543  1.00  0.00    +0.000 HD
ATOM    178  H   VAL A  10      10.652  -2.856  11.330  1.00  0.00    +0.000 HD
ATOM    179  H   PHE A  11       9.962  -3.564   8.383  1.00  0.00    +0.000 HD
ATOM    180  H   PHE A  12       9.975  -2.970   6.020  1.00  0.00    +0.000 HD
ATOM    181  H   ALA A  13      12.240  -1.517   2.754  1.00  0.00    +0.000 HD
ATOM    182  H   GLY A  14       9.719  -3.059  -0.035  1.00  0.00    +0.000 HD
ATOM    183  H   SER A  15      10.210  -2.722  -4.394  1.00  0.00    +0.000 HD
ATOM    184  H   SER A  15      10.921  -5.109  -6.581  1.00  0.00    +0.000 HD
ATOM    185  H   SER A  16       8.123  -6.765  -3.578  1.00  0.00    +0.000 HD
ATOM    186  H   SER A  16       9.105 -10.192  -3.747  1.00  0.00    +0.000 HD
ATOM    187  H   ASP A  17       9.529  -9.112  -7.414  1.00  0.00    +0.000 HD
ATOM    188  H   ASP A  17      13.107  -6.228  -8.826  1.00  0.00    +0.000 HD
ATOM    189  H   ALA A  18       7.428  -6.397  -9.744  1.00  0.00    +0.000 HD
ATOM    190  H   ILE A  19       8.902  -6.782 -13.655  1.00  0.00    +0.000 HD
ATOM    191  H   ARG A  20       6.434  -3.948 -15.566  1.00  0.00    +0.000 HD
ATOM    192  H   ARG A  20       1.073  -2.754 -19.526  1.00  0.00    +0.000 HD
ATOM    193  H   ARG A  20      -0.170  -1.848 -18.791  1.00  0.00    +0.000 HD
ATOM    194  H   ARG A  20      -0.221  -1.557 -16.611  1.00  0.00    +0.000 HD
ATOM    195  H   ARG A  20       0.988  -2.220 -15.607  1.00  0.00    +0.000 HD
ATOM    196  H   ARG A  21       8.561  -2.579 -16.444  1.00  0.00    +0.000 HD
ATOM    197  H   ARG A  21       2.864   3.511 -17.811  1.00  0.00    +0.000 HD
ATOM    198  H   ARG A  21       4.175   3.033 -16.831  1.00  0.00    +0.000 HD
ATOM    199  H   ARG A  21       1.748   2.036 -19.003  1.00  0.00    +0.000 HD
ATOM    200  H   ARG A  21       2.168   0.383 -18.973  1.00  0.00    +0.000 HD
ATOM    201  H   ARG A  21       9.656   1.023 -16.456  1.00  0.00    +0.000 HD
ENDROOT
TORSDOF 0
