REMARK  Name = /var/folders/yp/yjbh3p597675h2qddgqr02y00000gn/T/tmpjskbwxkv.pdb
REMARK     285 UNITARY VALUES FOR THE UNIT CELL AUTOMATICALLY SET
REMARK     285 BY MDANALYSIS PDBWRITER BECAUSE UNIT CELL INFORMATION
REMARK     285 WAS MISSING.
REMARK     285 PROTEIN DATA BANK CONVENTIONS REQUIRE THAT
REMARK     285 CRYST1 RECORD IS INCLUDED, BUT THE VALUES ON
REMARK     285 THIS RECORD ARE MEANINGLESS.
REMARK     285 UNITARY VALUES FOR THE UNIT CELL AUTOMATICALLY SET
REMARK     285 BY MDANALYSIS PDBWRITER BECAUSE UNIT CELL INFORMATION
REMARK     285 WAS MISSING.
REMARK     285 PROTEIN DATA BANK CONVENTIONS REQUIRE THAT
REMARK     285 CRYST1 RECORD IS INCLUDED, BUT THE VALUES ON
REMARK     285 THIS RECORD ARE MEANINGLESS.
REMARK                            x       y       z     vdW  Elec       q    Type
REMARK                         _______ _______ _______ _____ _____    ______ ____
REMARK  Name = /var/folders/yp/yjbh3p597675h2qddgqr02y00000gn/T/tmpjskbwxkv.pdb
REMARK     285 UNITARY VALUES FOR THE UNIT CELL AUTOMATICALLY SET
REMARK     285 BY MDANALYSIS PDBWRITER BECAUSE UNIT CELL INFORMATION
REMARK     285 WAS MISSING.
REMARK     285 PROTEIN DATA BANK CONVENTIONS REQUIRE THAT
REMARK     285 CRYST1 RECORD IS INCLUDED, BUT THE VALUES ON
REMARK     285 THIS RECORD ARE MEANINGLESS.
REMARK     285 UNITARY VALUES FOR THE UNIT CELL AUTOMATICALLY SET
REMARK     285 BY MDANALYSIS PDBWRITER BECAUSE UNIT CELL INFORMATION
REMARK     285 WAS MISSING.
REMARK     285 PROTEIN DATA BANK CONVENTIONS REQUIRE THAT
REMARK     285 CRYST1 RECORD IS INCLUDED, BUT THE VALUES ON
REMARK     285 THIS RECORD ARE MEANINGLESS.
REMARK                            x       y       z     vdW  Elec       q    Type
REMARK                         _______ _______ _______ _____ _____    ______ ____
REMARK  Name = /var/folders/yp/yjbh3p597675h2qddgqr02y00000gn/T/tmpjskbwxkv.pdb
REMARK     285 UNITARY VALUES FOR THE UNIT CELL AUTOMATICALLY SET
REMARK     285 BY MDANALYSIS PDBWRITER BECAUSE UNIT CELL INFORMATION
REMARK     285 WAS MISSING.
REMARK     285 PROTEIN DATA BANK CONVENTIONS REQUIRE THAT
REMARK     285 CRYST1 RECORD IS INCLUDED, BUT THE VALUES ON
REMARK     285 THIS RECORD ARE MEANINGLESS.
REMARK     285 UNITARY VALUES FOR THE UNIT CELL AUTOMATICALLY SET
REMARK     285 BY MDANALYSIS PDBWRITER BECAUSE UNIT CELL INFORMATION
REMARK     285 WAS MISSING.
REMARK     285 PROTEIN DATA BANK CONVENTIONS REQUIRE THAT
REMARK     285 CRYST1 RECORD IS INCLUDED, BUT THE VALUES ON
REMARK     285 THIS RECORD ARE MEANINGLESS.
REMARK                            x       y       z     vdW  Elec       q    Type
REMARK                         _______ _______ _______ _____ _____    ______ ____
REMARK  Name = /var/folders/yp/yjbh3p597675h2qddgqr02y00000gn/T/tmpjskbwxkv.pdb
REMARK     285 UNITARY VALUES FOR THE UNIT CELL AUTOMATICALLY SET
REMARK     285 BY MDANALYSIS PDBWRITER BECAUSE UNIT CELL INFORMATION
REMARK     285 WAS MISSING.
REMARK     285 PROTEIN DATA BANK CONVENTIONS REQUIRE THAT
REMARK     285 CRYST1 RECORD IS INCLUDED, BUT THE VALUES ON
REMARK     285 THIS RECORD ARE MEANINGLESS.
REMARK     285 UNITARY VALUES FOR THE UNIT CELL AUTOMATICALLY SET
REMARK     285 BY MDANALYSIS PDBWRITER BECAUSE UNIT CELL INFORMATION
REMARK     285 WAS MISSING.
REMARK     285 PROTEIN DATA BANK CONVENTIONS REQUIRE THAT
REMARK     285 CRYST1 RECORD IS INCLUDED, BUT THE VALUES ON
REMARK     285 THIS RECORD ARE MEANINGLESS.
REMARK                            x       y       z     vdW  Elec       q    Type
REMARK                         _______ _______ _______ _____ _____    ______ ____
ROOT
ATOM      1  N   MET A   1     -27.325   3.295   4.610  1.00  0.00    -0.230 N 
ATOM      2  CA  MET A   1     -27.254   3.429   6.062  1.00  0.00    +0.171 C 
ATOM      3  C   MET A   1     -26.441   2.299   6.673  1.00  0.00    +0.262 C 
ATOM      4  O   MET A   1     -26.886   1.152   6.698  1.00  0.00    -0.271 OA
ATOM      5  CB  MET A   1     -28.645   3.442   6.674  1.00  0.00    +0.043 C 
ATOM      6  CG  MET A   1     -29.526   4.572   6.164  1.00  0.00    +0.060 C 
ATOM      7  SD  MET A   1     -28.597   5.816   5.235  1.00  0.00    -0.139 S 
ATOM      8  CE  MET A   1     -27.961   6.819   6.574  1.00  0.00    +0.069 C 
ATOM      9  N   LYS A   2     -25.250   2.620   7.166  1.00  0.00    -0.196 N 
ATOM     10  CA  LYS A   2     -24.365   1.607   7.736  1.00  0.00    +0.173 C 
ATOM     11  C   LYS A   2     -24.839   1.180   9.115  1.00  0.00    +0.262 C 
ATOM     12  O   LYS A   2     -24.665   0.026   9.504  1.00  0.00    -0.271 OA
ATOM     13  CB  LYS A   2     -22.939   2.127   7.828  1.00  0.00    +0.031 C 
ATOM     14  CG  LYS A   2     -22.182   2.084   6.510  1.00  0.00    +0.004 C 
ATOM     15  CD  LYS A   2     -20.930   2.944   6.549  1.00  0.00    +0.028 C 
ATOM     16  CE  LYS A   2     -19.805   2.234   7.151  1.00  0.00    +0.149 C 
ATOM     17  NZ  LYS A   2     -19.772   1.788   8.403  1.00  0.00    -0.179 NA
ATOM     18  N   GLN A   3     -25.436   2.110   9.856  1.00  0.00    -0.196 N 
ATOM     19  CA  GLN A   3     -25.091   2.297  11.263  1.00  0.00    +0.173 C 
ATOM     20  C   GLN A   3     -25.815   1.290  12.142  1.00  0.00    +0.262 C 
ATOM     21  O   GLN A   3     -25.773   1.386  13.367  1.00  0.00    -0.271 OA
ATOM     22  CB  GLN A   3     -25.431   3.707  11.719  1.00  0.00    +0.041 C 
ATOM     23  CG  GLN A   3     -26.753   4.225  11.177  1.00  0.00    +0.091 C 
ATOM     24  CD  GLN A   3     -26.638   4.756   9.757  1.00  0.00    +0.261 C 
ATOM     25  OE1 GLN A   3     -25.732   5.544   9.444  1.00  0.00    -0.272 OA
ATOM     26  NE2 GLN A   3     -27.552   4.333   8.889  1.00  0.00    -0.088 N 
ATOM     27  N   ALA A   4     -26.481   0.324  11.516  1.00  0.00    -0.194 N 
ATOM     28  CA  ALA A   4     -25.807  -0.882  11.044  1.00  0.00    +0.196 C 
ATOM     29  C   ALA A   4     -26.197  -1.201   9.610  1.00  0.00    +0.301 C 
ATOM     30  O   ALA A   4     -27.105  -0.583   9.057  1.00  0.00    -0.268 OA
ATOM     31  CB  ALA A   4     -26.135  -2.068  11.936  1.00  0.00    +0.125 C 
ATOM     32  N   VAL A   5     -25.509  -2.166   9.006  1.00  0.00    -0.007 N 
ATOM     33  C   VAL A   5     -26.459  -4.407   8.875  1.00  0.00    +0.235 C 
ATOM     34  O   VAL A   5     -25.568  -5.230   9.081  1.00  0.00    -0.341 OA
ATOM     35  CB  VAL A   5     -25.312  -3.438   6.898  1.00  0.00    +0.045 C 
ATOM     36  CG1 VAL A   5     -24.971  -2.162   6.132  1.00  0.00    +0.151 C 
ATOM     37  N   ASN A   6     -27.710  -4.580   9.289  1.00  0.00    -0.182 NA
ATOM     38  CA  ASN A   6     -28.265  -5.915   9.498  1.00  0.00    +0.143 C 
ATOM     39  C   ASN A   6     -28.645  -6.572   8.180  1.00  0.00    +0.256 C 
ATOM     40  O   ASN A   6     -28.649  -7.798   8.074  1.00  0.00    -0.272 OA
ATOM     41  CB  ASN A   6     -29.481  -5.863  10.408  1.00  0.00    +0.114 C 
ATOM     42  CG  ASN A   6     -29.148  -5.348  11.799  1.00  0.00    +0.263 C 
ATOM     43  OD1 ASN A   6     -28.280  -5.891  12.482  1.00  0.00    -0.272 OA
ATOM     44  ND2 ASN A   6     -29.840  -4.296  12.223  1.00  0.00    -0.088 N 
ATOM     45  N   ALA A   7     -28.962  -5.759   7.178  1.00  0.00    -0.197 N 
ATOM     46  CA  ALA A   7     -29.378  -6.281   5.879  1.00  0.00    +0.173 C 
ATOM     47  C   ALA A   7     -28.261  -7.080   5.228  1.00  0.00    +0.261 C 
ATOM     48  O   ALA A   7     -28.481  -7.754   4.222  1.00  0.00    -0.271 OA
ATOM     49  CB  ALA A   7     -29.799  -5.151   4.954  1.00  0.00    +0.033 C 
ATOM     50  N   LEU A   8     -27.063  -7.004   5.799  1.00  0.00    -0.200 N 
ATOM     51  CA  LEU A   8     -26.624  -5.795   6.490  1.00  0.00    +0.155 C 
ATOM     52  C   LEU A   8     -26.665  -4.595   5.558  1.00  0.00    +0.261 C 
ATOM     53  O   LEU A   8     -26.395  -4.722   4.364  1.00  0.00    -0.460 OA
ATOM     54  CB  LEU A   8     -25.216  -5.967   7.035  1.00  0.00    +0.054 C 
ATOM     55  CG  LEU A   8     -25.109  -6.498   8.466  1.00  0.00    +0.098 C 
ATOM     56  CD1 LEU A   8     -24.714  -7.970   8.455  1.00  0.00    +0.030 C 
ATOM     57  CD2 LEU A   8     -26.492  -6.633   9.093  1.00  0.00    +0.053 C 
ATOM     58  N   LEU A   9     -27.000  -3.429   6.102  1.00  0.00    -0.172 NA
ATOM     59  CA  LEU A   9     -26.187  -2.233   5.897  1.00  0.00    +0.144 C 
ATOM     60  C   LEU A   9     -25.126  -2.107   6.977  1.00  0.00    +0.191 C 
ATOM     61  O   LEU A   9     -25.441  -2.113   8.166  1.00  0.00    -0.359 OA
ATOM     62  N   VAL A  10     -23.866  -1.991   6.566  1.00  0.00    -0.082 NA
ATOM     63  CA  VAL A  10     -23.184  -0.701   6.563  1.00  0.00    +0.245 C 
ATOM     64  C   VAL A  10     -23.610   0.103   5.346  1.00  0.00    +0.282 C 
ATOM     65  O   VAL A  10     -23.875   1.300   5.449  1.00  0.00    -0.269 OA
ATOM     66  CB  VAL A  10     -21.671  -0.861   6.562  1.00  0.00    +0.133 C 
ATOM     67  CG1 VAL A  10     -21.010   0.275   5.784  1.00  0.00    +0.107 C 
ATOM     68  CG2 VAL A  10     -21.132  -0.831   7.989  1.00  0.00    +0.170 C 
ATOM     69  N   PHE A  11     -23.676  -0.553   4.190  1.00  0.00    -0.200 N 
ATOM     70  CA  PHE A  11     -22.469  -0.923   3.456  1.00  0.00    +0.144 C 
ATOM     71  C   PHE A  11     -21.952   0.252   2.644  1.00  0.00    +0.212 C 
ATOM     72  O   PHE A  11     -20.814   0.237   2.178  1.00  0.00    -0.317 OA
ATOM     73  CB  PHE A  11     -22.738  -2.100   2.531  1.00  0.00    +0.052 C 
ATOM     74  CG  PHE A  11     -23.430  -3.250   3.200  1.00  0.00    -0.017 A 
ATOM     75  CD1 PHE A  11     -24.757  -3.129   3.596  1.00  0.00    +0.033 A 
ATOM     76  CE1 PHE A  11     -25.397  -4.196   4.215  1.00  0.00    +0.140 A 
ATOM     77  CD2 PHE A  11     -22.743  -4.439   3.423  1.00  0.00    -0.004 A 
ATOM     78  CE2 PHE A  11     -23.386  -5.505   4.043  1.00  0.00    +0.003 A 
ATOM     79  CZ  PHE A  11     -24.711  -5.384   4.439  1.00  0.00    +0.037 A 
ATOM     80  N   PHE A  12     -22.788   1.272   2.470  1.00  0.00    -0.182 NA
ATOM     81  CA  PHE A  12     -22.901   1.953   1.183  1.00  0.00    +0.157 C 
ATOM     82  C   PHE A  12     -21.669   2.800   0.913  1.00  0.00    +0.258 C 
ATOM     83  O   PHE A  12     -21.600   3.955   1.329  1.00  0.00    -0.272 OA
ATOM     84  CB  PHE A  12     -24.140   2.832   1.142  1.00  0.00    +0.053 C 
ATOM     85  CG  PHE A  12     -24.422   3.545   2.433  1.00  0.00    -0.019 A 
ATOM     86  CD1 PHE A  12     -23.372   3.942   3.251  1.00  0.00    -0.004 A 
ATOM     87  CE1 PHE A  12     -23.633   4.601   4.446  1.00  0.00    +0.001 A 
ATOM     88  CD2 PHE A  12     -25.735   3.808   2.807  1.00  0.00    +0.012 A 
ATOM     89  CE2 PHE A  12     -25.995   4.468   4.002  1.00  0.00    +0.065 A 
ATOM     90  CZ  PHE A  12     -24.946   4.865   4.822  1.00  0.00    +0.016 A 
ATOM     91  N   ALA A  13     -20.692   2.225   0.215  1.00  0.00    -0.197 N 
ATOM     92  CA  ALA A  13     -19.975   1.060   0.728  1.00  0.00    +0.173 C 
ATOM     93  C   ALA A  13     -19.233   1.397   2.011  1.00  0.00    +0.263 C 
ATOM     94  O   ALA A  13     -18.897   2.556   2.253  1.00  0.00    -0.271 OA
ATOM     95  CB  ALA A  13     -18.990   0.536  -0.304  1.00  0.00    +0.033 C 
ATOM     96  N   GLY A  14     -18.978   0.385   2.836  1.00  0.00    -0.172 N 
ATOM     97  CA  GLY A  14     -20.049  -0.310   3.541  1.00  0.00    +0.262 C 
ATOM     98  C   GLY A  14     -20.449   0.445   4.798  1.00  0.00    +0.199 C 
ATOM     99  O   GLY A  14     -19.830   1.448   5.148  1.00  0.00    -0.219 OA
ATOM    100  N   SER A  15     -21.488  -0.037   5.479  1.00  0.00    -0.213 NA
ATOM    101  CA  SER A  15     -21.905   0.555   6.746  1.00  0.00    +0.043 C 
ATOM    102  C   SER A  15     -21.146  -0.050   7.914  1.00  0.00    +0.037 C 
ATOM    103  O   SER A  15     -20.596  -1.145   7.804  1.00  0.00    -0.222 OA
ATOM    104  CB  SER A  15     -23.398   0.364   6.959  1.00  0.00    +0.058 C 
ATOM    105  OG  SER A  15     -23.720  -1.013   7.057  1.00  0.00    -0.375 OA
ATOM    106  N   SER A  16     -21.111   0.664   9.036  1.00  0.00    -0.169 NA
ATOM    107  CA  SER A  16     -20.749   0.056  10.313  1.00  0.00    +0.235 C 
ATOM    108  C   SER A  16     -21.833  -0.893  10.799  1.00  0.00    +0.269 C 
ATOM    109  O   SER A  16     -22.883  -1.016  10.171  1.00  0.00    -0.271 OA
ATOM    110  CB  SER A  16     -20.502   1.125  11.365  1.00  0.00    +0.218 C 
ATOM    111  OG  SER A  16     -21.722   1.723  11.770  1.00  0.00    -0.218 OA
ATOM    112  N   ASP A  17     -21.578  -1.565  11.919  1.00  0.00    -0.195 N 
ATOM    113  CA  ASP A  17     -22.467  -2.625  12.387  1.00  0.00    +0.182 C 
ATOM    114  C   ASP A  17     -23.862  -2.087  12.658  1.00  0.00    +0.246 C 
ATOM    115  O   ASP A  17     -24.029  -0.907  12.960  1.00  0.00    -0.273 OA
ATOM    116  CB  ASP A  17     -21.919  -3.274  13.648  1.00  0.00    +0.144 C 
ATOM    117  CG  ASP A  17     -22.890  -4.257  14.281  1.00  0.00    +0.354 C 
ATOM    118  OD1 ASP A  17     -22.784  -5.475  14.016  1.00  0.00    -0.247 OA
ATOM    119  OD2 ASP A  17     -23.770  -3.809  15.048  1.00  0.00    -0.294 OA
ATOM    120  N   ALA A  18     -24.866  -2.953  12.547  1.00  0.00    -0.273 N 
ATOM    121  CA  ALA A  18     -26.075  -2.823  13.355  1.00  0.00    +0.124 C 
ATOM    122  C   ALA A  18     -25.783  -3.090  14.823  1.00  0.00    +0.257 C 
ATOM    123  O   ALA A  18     -25.123  -4.072  15.159  1.00  0.00    -0.152 OA
ATOM    124  CB  ALA A  18     -27.154  -3.776  12.870  1.00  0.00    +0.026 C 
ATOM    125  N   ILE A  19     -26.273  -2.217  15.698  1.00  0.00    -0.179 NA
ATOM    126  CA  ILE A  19     -26.840  -2.653  16.970  1.00  0.00    +0.153 C 
ATOM    127  C   ILE A  19     -28.301  -3.032  16.780  1.00  0.00    +0.258 C 
ATOM    128  O   ILE A  19     -29.187  -2.188  16.903  1.00  0.00    -0.272 OA
ATOM    129  CB  ILE A  19     -26.731  -1.578  18.039  1.00  0.00    +0.025 C 
ATOM    130  CG1 ILE A  19     -25.338  -1.582  18.666  1.00  0.00    +0.002 C 
ATOM    131  CG2 ILE A  19     -27.777  -1.801  19.129  1.00  0.00    +0.002 C 
ATOM    132  CD1 ILE A  19     -25.153  -0.547  19.763  1.00  0.00    +0.000 C 
ATOM    133  N   ARG A  20     -28.552  -4.303  16.477  1.00  0.00    -0.197 N 
ATOM    134  CA  ARG A  20     -29.849  -4.910  16.761  1.00  0.00    +0.173 C 
ATOM    135  C   ARG A  20     -29.927  -5.373  18.207  1.00  0.00    +0.262 C 
ATOM    136  O   ARG A  20     -30.938  -5.164  18.877  1.00  0.00    -0.271 OA
ATOM    137  CB  ARG A  20     -30.111  -6.088  15.837  1.00  0.00    +0.033 C 
ATOM    138  CG  ARG A  20     -31.494  -6.698  15.999  1.00  0.00    +0.029 C 
ATOM    139  CD  ARG A  20     -32.577  -5.794  15.434  1.00  0.00    +0.129 C 
ATOM    140  NE  ARG A  20     -33.853  -5.992  16.115  1.00  0.00    -0.234 NA
ATOM    141  CZ  ARG A  20     -34.369  -5.160  17.017  1.00  0.00    +0.284 C 
ATOM    142  NH1 ARG A  20     -33.720  -4.055  17.369  1.00  0.00    -0.104 N 
ATOM    143  NH2 ARG A  20     -35.547  -5.439  17.570  1.00  0.00    -0.104 N 
ATOM    144  N   ARG A  21     -28.860  -6.003  18.691  1.00  0.00    -0.194 N 
ATOM    145  CA  ARG A  21     -28.990  -7.226  19.477  1.00  0.00    +0.198 C 
ATOM    146  C   ARG A  21     -29.463  -6.920  20.888  1.00  0.00    +0.384 C 
ATOM    147  O   ARG A  21     -30.432  -7.509  21.365  1.00  0.00    -0.244 OA
ATOM    148  CB  ARG A  21     -27.671  -7.977  19.535  1.00  0.00    +0.035 C 
ATOM    149  CG  ARG A  21     -27.286  -8.644  18.224  1.00  0.00    +0.029 C 
ATOM    150  CD  ARG A  21     -25.982  -9.419  18.346  1.00  0.00    +0.129 C 
ATOM    151  NE  ARG A  21     -25.830 -10.011  19.672  1.00  0.00    -0.234 NA
ATOM    152  CZ  ARG A  21     -25.612 -11.302  19.905  1.00  0.00    +0.284 C 
ATOM    153  NH1 ARG A  21     -25.423 -12.150  18.898  1.00  0.00    -0.104 N 
ATOM    154  NH2 ARG A  21     -25.583 -11.748  21.157  1.00  0.00    -0.104 N 
ATOM    155  OXT ARG A  21     -28.883  -6.079  21.573  1.00  0.00    -0.244 OA
ATOM    156  H   MET A   1     -27.927   2.725   4.078  1.00  0.00    +0.000 HD
ATOM    157  H   LYS A   2     -24.958   3.560   7.147  1.00  0.00    +0.000 HD
ATOM    158  H   GLN A   3     -26.125   2.683   9.448  1.00  0.00    +0.000 HD
ATOM    159  H   GLN A   3     -27.526   4.644   7.956  1.00  0.00    +0.000 HD
ATOM    160  H   GLN A   3     -28.255   3.708   9.181  1.00  0.00    +0.000 HD
ATOM    161  H   ALA A   4     -27.450   0.423  11.369  1.00  0.00    +0.000 HD
ATOM    162  H   VAL A   5     -25.100  -2.904   9.512  1.00  0.00    +0.000 HD
ATOM    163  H   ASN A   6     -28.308  -4.125   8.599  1.00  0.00    +0.000 HD
ATOM    164  H   ASN A   6     -30.526  -3.892  11.645  1.00  0.00    +0.000 HD
ATOM    165  H   ASN A   6     -29.667  -3.920  13.116  1.00  0.00    +0.000 HD
ATOM    166  H   ALA A   7     -28.914  -4.785   7.313  1.00  0.00    +0.000 HD
ATOM    167  H   LEU A   8     -26.459  -7.780   5.755  1.00  0.00    +0.000 HD
ATOM    168  H   LEU A   9     -27.040  -3.582   7.110  1.00  0.00    +0.000 HD
ATOM    169  H   PHE A  11     -24.557  -0.794   3.823  1.00  0.00    +0.000 HD
ATOM    170  H   PHE A  12     -23.720   0.923   2.694  1.00  0.00    +0.000 HD
ATOM    171  H   ALA A  13     -20.448   2.592  -0.665  1.00  0.00    +0.000 HD
ATOM    172  H   GLY A  14     -18.045   0.100   2.974  1.00  0.00    +0.000 HD
ATOM    173  H   GLY A  14     -19.325   1.251   5.953  1.00  0.00    +0.000 HD
ATOM    174  H   SER A  15     -21.189  -0.524   4.634  1.00  0.00    +0.000 HD
ATOM    175  H   SER A  15     -20.310  -0.813   6.939  1.00  0.00    +0.000 HD
ATOM    176  H   SER A  16     -22.147   2.140  11.004  1.00  0.00    +0.000 HD
ATOM    177  H   ASP A  17     -20.774  -1.344  12.442  1.00  0.00    +0.000 HD
ATOM    178  H   ILE A  19     -27.012  -1.707  15.213  1.00  0.00    +0.000 HD
ATOM    179  H   ARG A  20     -27.849  -4.846  16.052  1.00  0.00    +0.000 HD
ATOM    180  H   ARG A  20     -32.849  -3.845  16.962  1.00  0.00    +0.000 HD
ATOM    181  H   ARG A  20     -34.111  -3.447  18.038  1.00  0.00    +0.000 HD
ATOM    182  H   ARG A  20     -36.031  -6.256  17.312  1.00  0.00    +0.000 HD
ATOM    183  H   ARG A  20     -35.933  -4.828  18.238  1.00  0.00    +0.000 HD
ATOM    184  H   ARG A  21     -27.964  -5.637  18.514  1.00  0.00    +0.000 HD
ATOM    185  H   ARG A  21     -25.443 -11.825  17.970  1.00  0.00    +0.000 HD
ATOM    186  H   ARG A  21     -25.263 -13.104  19.082  1.00  0.00    +0.000 HD
ATOM    187  H   ARG A  21     -25.423 -12.703  21.336  1.00  0.00    +0.000 HD
ATOM    188  H   ARG A  21     -25.722 -11.123  21.906  1.00  0.00    +0.000 HD
ATOM    189  H   ARG A  21     -28.143  -5.621  21.225  1.00  0.00    +0.000 HD
ATOM      1  CA  VAL A   5     -26.162  -3.124   8.118  1.00  0.00    +0.000 C 
ATOM      1  CG2 VAL A   5     -24.001  -4.100   7.319  1.00  0.00    +0.000 C 
ATOM      1  CB  LEU A   9     -27.057  -0.985   5.892  1.00  0.00    +0.000 C 
ATOM      2  CG  LEU A   9     -27.808  -0.694   4.592  1.00  0.00    +0.000 C 
ATOM      3  CD1 LEU A   9     -28.262   0.762   4.560  1.00  0.00    +0.000 C 
ATOM      4  CD2 LEU A   9     -29.178  -1.365   4.602  1.00  0.00    +0.000 C 
ENDROOT
TORSDOF 0
