REMARK  Name = /var/folders/yp/yjbh3p597675h2qddgqr02y00000gn/T/tmpibeyxrg5.pdb
REMARK     285 UNITARY VALUES FOR THE UNIT CELL AUTOMATICALLY SET
REMARK     285 BY MDANALYSIS PDBWRITER BECAUSE UNIT CELL INFORMATION
REMARK     285 WAS MISSING.
REMARK     285 PROTEIN DATA BANK CONVENTIONS REQUIRE THAT
REMARK     285 CRYST1 RECORD IS INCLUDED, BUT THE VALUES ON
REMARK     285 THIS RECORD ARE MEANINGLESS.
REMARK     285 UNITARY VALUES FOR THE UNIT CELL AUTOMATICALLY SET
REMARK     285 BY MDANALYSIS PDBWRITER BECAUSE UNIT CELL INFORMATION
REMARK     285 WAS MISSING.
REMARK     285 PROTEIN DATA BANK CONVENTIONS REQUIRE THAT
REMARK     285 CRYST1 RECORD IS INCLUDED, BUT THE VALUES ON
REMARK     285 THIS RECORD ARE MEANINGLESS.
REMARK                            x       y       z     vdW  Elec       q    Type
REMARK                         _______ _______ _______ _____ _____    ______ ____
ROOT
ATOM      1  N   MET A   1      -2.853  14.335 -13.595  1.00  0.00    -0.123 NA
ATOM      2  CA  MET A   1      -2.075  15.456 -14.117  1.00  0.00    +0.170 C 
ATOM      3  C   MET A   1      -1.642  15.197 -15.550  1.00  0.00    +0.259 C 
ATOM      4  O   MET A   1      -1.664  14.057 -16.013  1.00  0.00    -0.272 OA
ATOM      5  CB  MET A   1      -0.849  15.711 -13.255  1.00  0.00    +0.040 C 
ATOM      6  CG  MET A   1      -1.174  16.281 -11.884  1.00  0.00    +0.060 C 
ATOM      7  SD  MET A   1      -0.935  18.073 -11.797  1.00  0.00    -0.139 S 
ATOM      8  CE  MET A   1      -1.613  18.573 -13.376  1.00  0.00    +0.069 C 
ATOM      9  N   LYS A   2      -1.250  16.253 -16.256  1.00  0.00    -0.197 N 
ATOM     10  CA  LYS A   2      -0.796  16.120 -17.637  1.00  0.00    +0.173 C 
ATOM     11  C   LYS A   2       0.674  15.737 -17.695  1.00  0.00    +0.262 C 
ATOM     12  O   LYS A   2       1.194  15.425 -18.765  1.00  0.00    -0.271 OA
ATOM     13  CB  LYS A   2      -1.015  17.413 -18.406  1.00  0.00    +0.031 C 
ATOM     14  CG  LYS A   2      -2.470  17.682 -18.754  1.00  0.00    +0.009 C 
ATOM     15  CD  LYS A   2      -2.690  19.125 -19.179  1.00  0.00    +0.049 C 
ATOM     16  CE  LYS A   2      -1.966  19.442 -20.406  1.00  0.00    +0.096 C 
ATOM     17  NZ  LYS A   2      -0.643  19.545 -20.501  1.00  0.00    -0.151 NA
ATOM     18  N   GLN A   3       1.342  15.760 -16.546  1.00  0.00    -0.196 N 
ATOM     19  CA  GLN A   3       2.769  15.452 -16.490  1.00  0.00    +0.173 C 
ATOM     20  C   GLN A   3       3.005  13.951 -16.505  1.00  0.00    +0.262 C 
ATOM     21  O   GLN A   3       4.147  13.497 -16.430  1.00  0.00    -0.271 OA
ATOM     22  CB  GLN A   3       3.405  16.052 -15.247  1.00  0.00    +0.041 C 
ATOM     23  CG  GLN A   3       3.737  17.530 -15.382  1.00  0.00    +0.091 C 
ATOM     24  CD  GLN A   3       2.621  18.432 -14.882  1.00  0.00    +0.261 C 
ATOM     25  OE1 GLN A   3       1.777  18.013 -14.078  1.00  0.00    -0.272 OA
ATOM     26  NE2 GLN A   3       2.609  19.676 -15.353  1.00  0.00    -0.088 N 
ATOM     27  N   ALA A   4       1.928  13.178 -16.602  1.00  0.00    -0.196 N 
ATOM     28  CA  ALA A   4       1.980  11.756 -16.274  1.00  0.00    +0.173 C 
ATOM     29  C   ALA A   4       1.530  10.908 -17.452  1.00  0.00    +0.262 C 
ATOM     30  O   ALA A   4       0.669  11.319 -18.228  1.00  0.00    -0.271 OA
ATOM     31  CB  ALA A   4       1.110  11.449 -15.067  1.00  0.00    +0.033 C 
ATOM     32  N   VAL A   5       2.112   9.719 -17.588  1.00  0.00    -0.196 N 
ATOM     33  CA  VAL A   5       1.405   8.589 -18.183  1.00  0.00    +0.170 C 
ATOM     34  C   VAL A   5       0.337   8.088 -17.223  1.00  0.00    +0.216 C 
ATOM     35  O   VAL A   5       0.610   7.877 -16.042  1.00  0.00    -0.462 OA
ATOM     36  CB  VAL A   5       2.347   7.449 -18.533  1.00  0.00    +0.029 C 
ATOM     37  CG1 VAL A   5       1.871   6.721 -19.787  1.00  0.00    +0.002 C 
ATOM     38  CG2 VAL A   5       3.752   7.985 -18.802  1.00  0.00    +0.002 C 
ATOM     39  N   ASN A   6      -0.878   7.898 -17.728  1.00  0.00    -0.232 NA
ATOM     40  CA  ASN A   6      -1.957   7.334 -16.922  1.00  0.00    +0.193 C 
ATOM     41  C   ASN A   6      -2.452   6.017 -17.499  1.00  0.00    +0.265 C 
ATOM     42  O   ASN A   6      -3.512   5.525 -17.113  1.00  0.00    -0.271 OA
ATOM     43  CB  ASN A   6      -3.119   8.307 -16.809  1.00  0.00    +0.122 C 
ATOM     44  CG  ASN A   6      -2.766   9.548 -16.007  1.00  0.00    +0.263 C 
ATOM     45  OD1 ASN A   6      -2.535   9.475 -14.800  1.00  0.00    -0.272 OA
ATOM     46  ND2 ASN A   6      -2.723  10.696 -16.678  1.00  0.00    -0.088 N 
ATOM     47  N   ALA A   7      -1.685   5.445 -18.423  1.00  0.00    -0.196 N 
ATOM     48  CA  ALA A   7      -1.779   4.017 -18.713  1.00  0.00    +0.173 C 
ATOM     49  C   ALA A   7      -1.283   3.188 -17.540  1.00  0.00    +0.262 C 
ATOM     50  O   ALA A   7      -1.330   1.959 -17.580  1.00  0.00    -0.271 OA
ATOM     51  CB  ALA A   7      -0.980   3.665 -19.957  1.00  0.00    +0.033 C 
ATOM     52  N   LEU A   8      -0.808   3.858 -16.493  1.00  0.00    -0.196 N 
ATOM     53  CA  LEU A   8       0.535   3.610 -15.976  1.00  0.00    +0.173 C 
ATOM     54  C   LEU A   8       0.646   2.204 -15.410  1.00  0.00    +0.262 C 
ATOM     55  O   LEU A   8      -0.225   1.764 -14.660  1.00  0.00    -0.271 OA
ATOM     56  CB  LEU A   8       0.892   4.622 -14.901  1.00  0.00    +0.035 C 
ATOM     57  CG  LEU A   8       1.176   6.046 -15.383  1.00  0.00    +0.046 C 
ATOM     58  CD1 LEU A   8       2.236   6.701 -14.503  1.00  0.00    +0.004 C 
ATOM     59  CD2 LEU A   8       0.004   6.966 -15.059  1.00  0.00    +0.207 C 
ATOM     60  N   LEU A   9       1.716   1.501 -15.765  1.00  0.00    -0.196 N 
ATOM     61  CA  LEU A   9       2.418   0.648 -14.810  1.00  0.00    +0.173 C 
ATOM     62  C   LEU A   9       3.813   1.182 -14.531  1.00  0.00    +0.262 C 
ATOM     63  O   LEU A   9       4.627   1.314 -15.446  1.00  0.00    -0.271 OA
ATOM     64  CB  LEU A   9       2.513  -0.777 -15.329  1.00  0.00    +0.031 C 
ATOM     65  CG  LEU A   9       1.230  -1.606 -15.258  1.00  0.00    +0.002 C 
ATOM     66  CD1 LEU A   9       0.216  -1.098 -16.277  1.00  0.00    +0.000 C 
ATOM     67  CD2 LEU A   9       0.456  -1.289 -13.982  1.00  0.00    +0.000 C 
ATOM     68  N   VAL A  10       4.095   1.489 -13.268  1.00  0.00    -0.196 N 
ATOM     69  CA  VAL A  10       5.127   0.774 -12.523  1.00  0.00    +0.173 C 
ATOM     70  C   VAL A  10       4.600  -0.583 -12.090  1.00  0.00    +0.262 C 
ATOM     71  O   VAL A  10       5.370  -1.526 -11.917  1.00  0.00    -0.271 OA
ATOM     72  CB  VAL A  10       5.585   1.554 -11.301  1.00  0.00    +0.029 C 
ATOM     73  CG1 VAL A  10       6.281   2.848 -11.717  1.00  0.00    +0.002 C 
ATOM     74  CG2 VAL A  10       4.392   1.921 -10.424  1.00  0.00    +0.002 C 
ATOM     75  N   PHE A  11       3.285  -0.685 -11.913  1.00  0.00    -0.196 N 
ATOM     76  CA  PHE A  11       2.718  -1.050 -10.619  1.00  0.00    +0.177 C 
ATOM     77  C   PHE A  11       3.037  -2.496 -10.280  1.00  0.00    +0.262 C 
ATOM     78  O   PHE A  11       2.553  -3.025  -9.280  1.00  0.00    -0.271 OA
ATOM     79  CB  PHE A  11       1.211  -0.847 -10.610  1.00  0.00    +0.057 C 
ATOM     80  CG  PHE A  11       0.786   0.545 -10.967  1.00  0.00    -0.020 A 
ATOM     81  CD1 PHE A  11       1.399   1.637 -10.363  1.00  0.00    -0.004 A 
ATOM     82  CE1 PHE A  11       1.004   2.928 -10.693  1.00  0.00    -0.000 A 
ATOM     83  CD2 PHE A  11      -0.222   0.745 -11.903  1.00  0.00    -0.004 A 
ATOM     84  CE2 PHE A  11      -0.617   2.036 -12.234  1.00  0.00    -0.000 A 
ATOM     85  CZ  PHE A  11      -0.003   3.128 -11.630  1.00  0.00    -0.000 A 
ATOM     86  N   PHE A  12       3.854  -3.138 -11.110  1.00  0.00    -0.196 N 
ATOM     87  CA  PHE A  12       4.309  -4.497 -10.829  1.00  0.00    +0.177 C 
ATOM     88  C   PHE A  12       5.798  -4.516 -10.525  1.00  0.00    +0.262 C 
ATOM     89  O   PHE A  12       6.381  -5.580 -10.325  1.00  0.00    -0.271 OA
ATOM     90  CB  PHE A  12       4.021  -5.418 -12.005  1.00  0.00    +0.057 C 
ATOM     91  CG  PHE A  12       2.558  -5.623 -12.269  1.00  0.00    -0.020 A 
ATOM     92  CD1 PHE A  12       1.842  -4.673 -12.985  1.00  0.00    -0.004 A 
ATOM     93  CE1 PHE A  12       0.486  -4.862 -13.231  1.00  0.00    -0.000 A 
ATOM     94  CD2 PHE A  12       1.920  -6.765 -11.798  1.00  0.00    -0.004 A 
ATOM     95  CE2 PHE A  12       0.566  -6.956 -12.044  1.00  0.00    -0.000 A 
ATOM     96  CZ  PHE A  12      -0.151  -6.004 -12.759  1.00  0.00    -0.000 A 
ATOM     97  N   ALA A  13       6.415  -3.338 -10.490  1.00  0.00    -0.196 N 
ATOM     98  CA  ALA A  13       7.854  -3.240 -10.265  1.00  0.00    +0.173 C 
ATOM     99  C   ALA A  13       8.196  -3.472  -8.801  1.00  0.00    +0.262 C 
ATOM    100  O   ALA A  13       7.930  -2.619  -7.955  1.00  0.00    -0.271 OA
ATOM    101  CB  ALA A  13       8.377  -1.880 -10.698  1.00  0.00    +0.033 C 
ATOM    102  N   GLY A  14       8.785  -4.625  -8.502  1.00  0.00    -0.194 N 
ATOM    103  CA  GLY A  14      10.122  -4.668  -7.916  1.00  0.00    +0.201 C 
ATOM    104  C   GLY A  14      10.053  -4.566  -6.401  1.00  0.00    +0.264 C 
ATOM    105  O   GLY A  14       8.974  -4.663  -5.817  1.00  0.00    -0.271 OA
ATOM    106  N   SER A  15      11.204  -4.371  -5.765  1.00  0.00    -0.194 N 
ATOM    107  CA  SER A  15      11.504  -5.054  -4.510  1.00  0.00    +0.205 C 
ATOM    108  C   SER A  15      10.596  -4.573  -3.390  1.00  0.00    +0.264 C 
ATOM    109  O   SER A  15      10.323  -3.380  -3.276  1.00  0.00    -0.271 OA
ATOM    110  CB  SER A  15      12.956  -4.839  -4.115  1.00  0.00    +0.213 C 
ATOM    111  OG  SER A  15      13.536  -6.048  -3.654  1.00  0.00    -0.218 OA
ATOM    112  N   SER A  16      10.129  -5.502  -2.561  1.00  0.00    -0.194 N 
ATOM    113  CA  SER A  16      10.731  -5.724  -1.249  1.00  0.00    +0.205 C 
ATOM    114  C   SER A  16      11.456  -7.059  -1.194  1.00  0.00    +0.264 C 
ATOM    115  O   SER A  16      10.876  -8.069  -0.799  1.00  0.00    -0.271 OA
ATOM    116  CB  SER A  16       9.673  -5.675  -0.158  1.00  0.00    +0.213 C 
ATOM    117  OG  SER A  16       9.346  -4.334   0.165  1.00  0.00    -0.218 OA
ATOM    118  N   ASP A  17      12.726  -7.063  -1.589  1.00  0.00    -0.196 N 
ATOM    119  CA  ASP A  17      13.673  -8.054  -1.087  1.00  0.00    +0.184 C 
ATOM    120  C   ASP A  17      14.802  -7.390  -0.316  1.00  0.00    +0.262 C 
ATOM    121  O   ASP A  17      15.434  -6.459  -0.812  1.00  0.00    -0.271 OA
ATOM    122  CB  ASP A  17      14.254  -8.875  -2.228  1.00  0.00    +0.145 C 
ATOM    123  CG  ASP A  17      13.382 -10.057  -2.617  1.00  0.00    +0.367 C 
ATOM    124  OD1 ASP A  17      13.924 -11.149  -2.892  1.00  0.00    -0.246 OA
ATOM    125  OD2 ASP A  17      12.143  -9.892  -2.648  1.00  0.00    -0.246 OA
ATOM    126  N   ALA A  18      15.053  -7.865   0.901  1.00  0.00    -0.196 N 
ATOM    127  CA  ALA A  18      16.340  -8.470   1.230  1.00  0.00    +0.173 C 
ATOM    128  C   ALA A  18      16.178  -9.580   2.255  1.00  0.00    +0.262 C 
ATOM    129  O   ALA A  18      15.666  -9.349   3.350  1.00  0.00    -0.271 OA
ATOM    130  CB  ALA A  18      17.308  -7.425   1.762  1.00  0.00    +0.033 C 
ATOM    131  N   ILE A  19      16.611 -10.787   1.903  1.00  0.00    -0.196 N 
ATOM    132  CA  ILE A  19      17.932 -10.980   1.312  1.00  0.00    +0.173 C 
ATOM    133  C   ILE A  19      17.808 -11.804   0.040  1.00  0.00    +0.262 C 
ATOM    134  O   ILE A  19      17.256 -12.903   0.059  1.00  0.00    -0.271 OA
ATOM    135  CB  ILE A  19      18.889 -11.665   2.272  1.00  0.00    +0.029 C 
ATOM    136  CG1 ILE A  19      19.544 -10.645   3.201  1.00  0.00    +0.002 C 
ATOM    137  CG2 ILE A  19      19.971 -12.416   1.500  1.00  0.00    +0.002 C 
ATOM    138  CD1 ILE A  19      18.594 -10.047   4.228  1.00  0.00    +0.000 C 
ATOM    139  N   ARG A  20      18.324 -11.275  -1.066  1.00  0.00    -0.196 N 
ATOM    140  CA  ARG A  20      18.596 -12.092  -2.244  1.00  0.00    +0.173 C 
ATOM    141  C   ARG A  20      19.805 -11.568  -3.003  1.00  0.00    +0.262 C 
ATOM    142  O   ARG A  20      19.744 -10.503  -3.617  1.00  0.00    -0.271 OA
ATOM    143  CB  ARG A  20      17.391 -12.126  -3.170  1.00  0.00    +0.033 C 
ATOM    144  CG  ARG A  20      17.262 -13.419  -3.961  1.00  0.00    +0.029 C 
ATOM    145  CD  ARG A  20      15.887 -13.556  -4.596  1.00  0.00    +0.129 C 
ATOM    146  NE  ARG A  20      15.060 -14.526  -3.884  1.00  0.00    -0.234 NA
ATOM    147  CZ  ARG A  20      15.053 -15.835  -4.122  1.00  0.00    +0.284 C 
ATOM    148  NH1 ARG A  20      15.914 -16.373  -4.981  1.00  0.00    -0.104 N 
ATOM    149  NH2 ARG A  20      14.177 -16.613  -3.491  1.00  0.00    -0.104 N 
ATOM    150  N   ARG A  21      20.904 -12.315  -2.963  1.00  0.00    -0.194 N 
ATOM    151  CA  ARG A  21      21.526 -12.819  -4.185  1.00  0.00    +0.198 C 
ATOM    152  C   ARG A  21      21.174 -14.279  -4.413  1.00  0.00    +0.384 C 
ATOM    153  O   ARG A  21      20.481 -14.612  -5.372  1.00  0.00    -0.244 OA
ATOM    154  CB  ARG A  21      23.037 -12.663  -4.128  1.00  0.00    +0.035 C 
ATOM    155  CG  ARG A  21      23.573 -11.545  -5.006  1.00  0.00    +0.029 C 
ATOM    156  CD  ARG A  21      23.176 -10.175  -4.483  1.00  0.00    +0.129 C 
ATOM    157  NE  ARG A  21      23.674  -9.105  -5.341  1.00  0.00    -0.234 NA
ATOM    158  CZ  ARG A  21      23.644  -7.810  -5.035  1.00  0.00    +0.284 C 
ATOM    159  NH1 ARG A  21      23.195  -7.404  -3.850  1.00  0.00    -0.104 N 
ATOM    160  NH2 ARG A  21      24.068  -6.915  -5.920  1.00  0.00    -0.104 N 
ATOM    161  OXT ARG A  21      21.579 -15.147  -3.641  1.00  0.00    -0.244 OA
ATOM    162  H   MET A   1      -3.669  14.182 -14.187  1.00  0.00    +0.000 HD
ATOM    163  H   MET A   1      -3.157  14.545 -12.644  1.00  0.00    +0.000 HD
ATOM    164  H   LYS A   2      -1.265  17.145 -15.837  1.00  0.00    +0.000 HD
ATOM    165  H   LYS A   2      -0.081  19.402 -19.707  1.00  0.00    +0.000 HD
ATOM    166  H   GLN A   3       0.865  15.989 -15.715  1.00  0.00    +0.000 HD
ATOM    167  H   GLN A   3       3.300  19.968 -15.991  1.00  0.00    +0.000 HD
ATOM    168  H   GLN A   3       1.908  20.305 -15.064  1.00  0.00    +0.000 HD
ATOM    169  H   ALA A   4       1.076  13.572 -16.899  1.00  0.00    +0.000 HD
ATOM    170  H   VAL A   5       3.040   9.599 -17.282  1.00  0.00    +0.000 HD
ATOM    171  H   ASN A   6      -2.914  10.709 -17.644  1.00  0.00    +0.000 HD
ATOM    172  H   ASN A   6      -2.501  11.532 -16.209  1.00  0.00    +0.000 HD
ATOM    173  H   ALA A   7      -1.040   5.996 -18.922  1.00  0.00    +0.000 HD
ATOM    174  H   LEU A   8      -1.375   4.535 -16.057  1.00  0.00    +0.000 HD
ATOM    175  H   LEU A   9       2.042   1.556 -16.693  1.00  0.00    +0.000 HD
ATOM    176  H   VAL A  10       3.596   2.214 -12.827  1.00  0.00    +0.000 HD
ATOM    177  H   PHE A  11       2.682  -0.510 -12.671  1.00  0.00    +0.000 HD
ATOM    178  H   PHE A  12       4.159  -2.687 -11.930  1.00  0.00    +0.000 HD
ATOM    179  H   ALA A  13       5.891  -2.514 -10.618  1.00  0.00    +0.000 HD
ATOM    180  H   GLY A  14       8.309  -5.469  -8.680  1.00  0.00    +0.000 HD
ATOM    181  H   SER A  15      11.868  -3.753  -6.147  1.00  0.00    +0.000 HD
ATOM    182  H   SER A  15      13.051  -6.362  -2.875  1.00  0.00    +0.000 HD
ATOM    183  H   SER A  16       9.361  -6.053  -2.837  1.00  0.00    +0.000 HD
ATOM    184  H   SER A  16      10.138  -3.877   0.488  1.00  0.00    +0.000 HD
ATOM    185  H   ASP A  17      13.034  -6.384  -2.232  1.00  0.00    +0.000 HD
ATOM    186  H   ASP A  17      14.856 -11.231  -2.857  1.00  0.00    +0.000 HD
ATOM    187  H   ALA A  18      14.357  -7.808   1.595  1.00  0.00    +0.000 HD
ATOM    188  H   ILE A  19      16.028 -11.569   2.044  1.00  0.00    +0.000 HD
ATOM    189  H   ARG A  20      18.526 -10.312  -1.090  1.00  0.00    +0.000 HD
ATOM    190  H   ARG A  20      16.564 -15.801  -5.450  1.00  0.00    +0.000 HD
ATOM    191  H   ARG A  20      15.901 -17.343  -5.147  1.00  0.00    +0.000 HD
ATOM    192  H   ARG A  20      14.168 -17.582  -3.663  1.00  0.00    +0.000 HD
ATOM    193  H   ARG A  20      13.539 -16.219  -2.853  1.00  0.00    +0.000 HD
ATOM    194  H   ARG A  21      21.307 -12.533  -2.092  1.00  0.00    +0.000 HD
ATOM    195  H   ARG A  21      23.176  -6.444  -3.633  1.00  0.00    +0.000 HD
ATOM    196  H   ARG A  21      22.880  -8.063  -3.190  1.00  0.00    +0.000 HD
ATOM    197  H   ARG A  21      24.402  -7.211  -6.798  1.00  0.00    +0.000 HD
ATOM    198  H   ARG A  21      24.049  -5.956  -5.698  1.00  0.00    +0.000 HD
ATOM    199  H   ARG A  21      22.108 -14.910  -2.905  1.00  0.00    +0.000 HD
ENDROOT
TORSDOF 0
