REMARK  Name = /var/folders/yp/yjbh3p597675h2qddgqr02y00000gn/T/tmpcnr8fl9h.pdb
REMARK     285 UNITARY VALUES FOR THE UNIT CELL AUTOMATICALLY SET
REMARK     285 BY MDANALYSIS PDBWRITER BECAUSE UNIT CELL INFORMATION
REMARK     285 WAS MISSING.
REMARK     285 PROTEIN DATA BANK CONVENTIONS REQUIRE THAT
REMARK     285 CRYST1 RECORD IS INCLUDED, BUT THE VALUES ON
REMARK     285 THIS RECORD ARE MEANINGLESS.
REMARK     285 UNITARY VALUES FOR THE UNIT CELL AUTOMATICALLY SET
REMARK     285 BY MDANALYSIS PDBWRITER BECAUSE UNIT CELL INFORMATION
REMARK     285 WAS MISSING.
REMARK     285 PROTEIN DATA BANK CONVENTIONS REQUIRE THAT
REMARK     285 CRYST1 RECORD IS INCLUDED, BUT THE VALUES ON
REMARK     285 THIS RECORD ARE MEANINGLESS.
REMARK                            x       y       z     vdW  Elec       q    Type
REMARK                         _______ _______ _______ _____ _____    ______ ____
ROOT
ATOM      1  N   MET A   1      13.507 -14.435  22.972  1.00  0.00    -0.123 NA
ATOM      2  CA  MET A   1      13.628 -15.531  22.014  1.00  0.00    +0.169 C 
ATOM      3  C   MET A   1      12.267 -16.132  21.702  1.00  0.00    +0.238 C 
ATOM      4  O   MET A   1      11.638 -15.770  20.709  1.00  0.00    -0.274 OA
ATOM      5  CB  MET A   1      14.550 -16.615  22.547  1.00  0.00    +0.056 C 
ATOM      6  CG  MET A   1      14.355 -17.965  21.876  1.00  0.00    +0.116 C 
ATOM      7  SD  MET A   1      12.612 -18.433  21.741  1.00  0.00    -0.104 S 
ATOM      8  CE  MET A   1      12.168 -18.552  23.471  1.00  0.00    +0.121 C 
ATOM      9  N   LYS A   2      11.811 -17.049  22.550  1.00  0.00    -0.280 NA
ATOM     10  CA  LYS A   2      11.112 -18.240  22.077  1.00  0.00    +0.168 C 
ATOM     11  C   LYS A   2       9.630 -17.960  21.877  1.00  0.00    +0.267 C 
ATOM     12  O   LYS A   2       8.869 -18.857  21.520  1.00  0.00    -0.271 OA
ATOM     13  CB  LYS A   2      11.283 -19.392  23.054  1.00  0.00    +0.062 C 
ATOM     14  CG  LYS A   2      12.507 -20.252  22.781  1.00  0.00    +0.007 C 
ATOM     15  CD  LYS A   2      13.798 -19.487  23.020  1.00  0.00    +0.020 C 
ATOM     16  CE  LYS A   2      14.460 -19.145  21.763  1.00  0.00    +0.098 C 
ATOM     17  NZ  LYS A   2      15.483 -18.302  21.651  1.00  0.00    -0.208 NA
ATOM     18  N   GLN A   3       9.222 -16.715  22.107  1.00  0.00    -0.196 N 
ATOM     19  CA  GLN A   3       7.838 -16.314  21.877  1.00  0.00    +0.173 C 
ATOM     20  C   GLN A   3       7.540 -16.210  20.391  1.00  0.00    +0.262 C 
ATOM     21  O   GLN A   3       6.421 -16.482  19.957  1.00  0.00    -0.271 OA
ATOM     22  CB  GLN A   3       7.539 -14.985  22.551  1.00  0.00    +0.041 C 
ATOM     23  CG  GLN A   3       6.403 -14.211  21.902  1.00  0.00    +0.091 C 
ATOM     24  CD  GLN A   3       5.082 -14.963  21.939  1.00  0.00    +0.261 C 
ATOM     25  OE1 GLN A   3       4.242 -14.816  21.040  1.00  0.00    -0.272 OA
ATOM     26  NE2 GLN A   3       4.890 -15.774  22.976  1.00  0.00    -0.088 N 
ATOM     27  N   ALA A   4       8.540 -15.813  19.608  1.00  0.00    -0.196 N 
ATOM     28  CA  ALA A   4       8.292 -15.235  18.291  1.00  0.00    +0.173 C 
ATOM     29  C   ALA A   4       8.695 -16.198  17.187  1.00  0.00    +0.262 C 
ATOM     30  O   ALA A   4       9.731 -16.855  17.277  1.00  0.00    -0.271 OA
ATOM     31  CB  ALA A   4       9.047 -13.926  18.125  1.00  0.00    +0.033 C 
ATOM     32  N   VAL A   5       7.877 -16.283  16.141  1.00  0.00    -0.196 N 
ATOM     33  CA  VAL A   5       8.389 -16.292  14.775  1.00  0.00    +0.173 C 
ATOM     34  C   VAL A   5       8.956 -14.926  14.428  1.00  0.00    +0.262 C 
ATOM     35  O   VAL A   5       8.356 -13.901  14.751  1.00  0.00    -0.271 OA
ATOM     36  CB  VAL A   5       7.313 -16.665  13.769  1.00  0.00    +0.029 C 
ATOM     37  CG1 VAL A   5       7.647 -16.106  12.387  1.00  0.00    +0.002 C 
ATOM     38  CG2 VAL A   5       7.199 -18.183  13.648  1.00  0.00    +0.002 C 
ATOM     39  N   ASN A   6      10.111 -14.909  13.770  1.00  0.00    -0.196 N 
ATOM     40  CA  ASN A   6      11.216 -14.055  14.194  1.00  0.00    +0.182 C 
ATOM     41  C   ASN A   6      11.036 -12.626  13.704  1.00  0.00    +0.262 C 
ATOM     42  O   ASN A   6      11.460 -11.681  14.367  1.00  0.00    -0.271 OA
ATOM     43  CB  ASN A   6      12.546 -14.597  13.698  1.00  0.00    +0.120 C 
ATOM     44  CG  ASN A   6      12.553 -16.113  13.585  1.00  0.00    +0.263 C 
ATOM     45  OD1 ASN A   6      12.328 -16.820  14.567  1.00  0.00    -0.272 OA
ATOM     46  ND2 ASN A   6      12.815 -16.617  12.382  1.00  0.00    -0.088 N 
ATOM     47  N   ALA A   7      10.408 -12.469  12.543  1.00  0.00    -0.196 N 
ATOM     48  CA  ALA A   7      10.632 -13.385  11.429  1.00  0.00    +0.173 C 
ATOM     49  C   ALA A   7      12.020 -13.194  10.834  1.00  0.00    +0.262 C 
ATOM     50  O   ALA A   7      12.520 -14.065  10.126  1.00  0.00    -0.271 OA
ATOM     51  CB  ALA A   7       9.584 -13.186  10.345  1.00  0.00    +0.033 C 
ATOM     52  N   LEU A   8      12.638 -12.052  11.123  1.00  0.00    -0.196 N 
ATOM     53  CA  LEU A   8      13.418 -11.337  10.116  1.00  0.00    +0.173 C 
ATOM     54  C   LEU A   8      14.904 -11.607  10.290  1.00  0.00    +0.262 C 
ATOM     55  O   LEU A   8      15.472 -11.321  11.343  1.00  0.00    -0.271 OA
ATOM     56  CB  LEU A   8      13.161  -9.840  10.200  1.00  0.00    +0.031 C 
ATOM     57  CG  LEU A   8      11.697  -9.404  10.128  1.00  0.00    +0.002 C 
ATOM     58  CD1 LEU A   8      11.594  -7.992   9.562  1.00  0.00    +0.000 C 
ATOM     59  CD2 LEU A   8      11.147  -9.136  11.524  1.00  0.00    +0.000 C 
ATOM     60  N   LEU A   9      15.534 -12.158   9.256  1.00  0.00    -0.196 N 
ATOM     61  CA  LEU A   9      16.703 -11.524   8.652  1.00  0.00    +0.173 C 
ATOM     62  C   LEU A   9      16.355 -10.921   7.301  1.00  0.00    +0.262 C 
ATOM     63  O   LEU A   9      16.065 -11.644   6.350  1.00  0.00    -0.271 OA
ATOM     64  CB  LEU A   9      17.833 -12.526   8.486  1.00  0.00    +0.031 C 
ATOM     65  CG  LEU A   9      18.357 -13.171   9.772  1.00  0.00    +0.002 C 
ATOM     66  CD1 LEU A   9      19.659 -13.913   9.497  1.00  0.00    +0.000 C 
ATOM     67  CD2 LEU A   9      17.489 -14.360  10.166  1.00  0.00    +0.000 C 
ATOM     68  N   VAL A  10      16.383  -9.594   7.216  1.00  0.00    -0.196 N 
ATOM     69  CA  VAL A  10      17.594  -8.883   6.816  1.00  0.00    +0.173 C 
ATOM     70  C   VAL A  10      18.443  -8.588   8.042  1.00  0.00    +0.262 C 
ATOM     71  O   VAL A  10      19.622  -8.935   8.084  1.00  0.00    -0.271 OA
ATOM     72  CB  VAL A  10      17.278  -7.586   6.093  1.00  0.00    +0.029 C 
ATOM     73  CG1 VAL A  10      18.331  -7.292   5.027  1.00  0.00    +0.002 C 
ATOM     74  CG2 VAL A  10      15.920  -7.678   5.401  1.00  0.00    +0.002 C 
ATOM     75  N   PHE A  11      17.846  -7.944   9.040  1.00  0.00    -0.196 N 
ATOM     76  CA  PHE A  11      16.625  -8.459   9.654  1.00  0.00    +0.177 C 
ATOM     77  C   PHE A  11      15.396  -7.915   8.944  1.00  0.00    +0.262 C 
ATOM     78  O   PHE A  11      14.386  -8.608   8.823  1.00  0.00    -0.271 OA
ATOM     79  CB  PHE A  11      16.563  -8.094  11.128  1.00  0.00    +0.057 C 
ATOM     80  CG  PHE A  11      17.821  -8.405  11.883  1.00  0.00    -0.020 A 
ATOM     81  CD1 PHE A  11      18.369  -9.680  11.826  1.00  0.00    -0.004 A 
ATOM     82  CE1 PHE A  11      19.534  -9.969  12.528  1.00  0.00    -0.000 A 
ATOM     83  CD2 PHE A  11      18.439  -7.417  12.642  1.00  0.00    -0.004 A 
ATOM     84  CE2 PHE A  11      19.603  -7.704  13.343  1.00  0.00    -0.000 A 
ATOM     85  CZ  PHE A  11      20.151  -8.980  13.285  1.00  0.00    -0.000 A 
ATOM     86  N   PHE A  12      15.478  -6.675   8.473  1.00  0.00    -0.196 N 
ATOM     87  CA  PHE A  12      15.025  -5.531   9.259  1.00  0.00    +0.177 C 
ATOM     88  C   PHE A  12      13.592  -5.168   8.904  1.00  0.00    +0.262 C 
ATOM     89  O   PHE A  12      12.946  -4.404   9.621  1.00  0.00    -0.271 OA
ATOM     90  CB  PHE A  12      15.925  -4.327   9.036  1.00  0.00    +0.057 C 
ATOM     91  CG  PHE A  12      15.284  -3.228   8.245  1.00  0.00    -0.020 A 
ATOM     92  CD1 PHE A  12      15.220  -3.314   6.860  1.00  0.00    -0.004 A 
ATOM     93  CE1 PHE A  12      14.626  -2.293   6.125  1.00  0.00    -0.000 A 
ATOM     94  CD2 PHE A  12      14.752  -2.121   8.897  1.00  0.00    -0.004 A 
ATOM     95  CE2 PHE A  12      14.157  -1.100   8.164  1.00  0.00    -0.000 A 
ATOM     96  CZ  PHE A  12      14.095  -1.187   6.778  1.00  0.00    -0.000 A 
ATOM     97  N   ALA A  13      13.096  -5.713   7.798  1.00  0.00    -0.196 N 
ATOM     98  CA  ALA A  13      12.477  -4.895   6.759  1.00  0.00    +0.173 C 
ATOM     99  C   ALA A  13      11.251  -4.172   7.291  1.00  0.00    +0.262 C 
ATOM    100  O   ALA A  13      10.469  -4.743   8.051  1.00  0.00    -0.271 OA
ATOM    101  CB  ALA A  13      12.084  -5.748   5.564  1.00  0.00    +0.033 C 
ATOM    102  N   GLY A  14      11.081  -2.914   6.892  1.00  0.00    -0.194 N 
ATOM    103  CA  GLY A  14       9.753  -2.380   6.606  1.00  0.00    +0.201 C 
ATOM    104  C   GLY A  14       9.827  -1.264   5.577  1.00  0.00    +0.264 C 
ATOM    105  O   GLY A  14      10.884  -1.017   4.998  1.00  0.00    -0.271 OA
ATOM    106  N   SER A  15       8.705  -0.588   5.349  1.00  0.00    -0.194 N 
ATOM    107  CA  SER A  15       8.690   0.597   4.494  1.00  0.00    +0.205 C 
ATOM    108  C   SER A  15       9.466   1.741   5.127  1.00  0.00    +0.264 C 
ATOM    109  O   SER A  15       9.454   1.904   6.347  1.00  0.00    -0.271 OA
ATOM    110  CB  SER A  15       7.263   1.042   4.221  1.00  0.00    +0.213 C 
ATOM    111  OG  SER A  15       6.684   1.617   5.378  1.00  0.00    -0.218 OA
ATOM    112  N   SER A  16      10.142   2.532   4.300  1.00  0.00    -0.194 N 
ATOM    113  CA  SER A  16      10.387   3.935   4.620  1.00  0.00    +0.205 C 
ATOM    114  C   SER A  16       9.130   4.770   4.442  1.00  0.00    +0.264 C 
ATOM    115  O   SER A  16       9.092   5.933   4.843  1.00  0.00    -0.271 OA
ATOM    116  CB  SER A  16      11.498   4.497   3.748  1.00  0.00    +0.213 C 
ATOM    117  OG  SER A  16      11.332   5.891   3.559  1.00  0.00    -0.218 OA
ATOM    118  N   ASP A  17       8.103   4.180   3.840  1.00  0.00    -0.196 N 
ATOM    119  CA  ASP A  17       6.944   4.944   3.387  1.00  0.00    +0.184 C 
ATOM    120  C   ASP A  17       5.738   4.684   4.273  1.00  0.00    +0.262 C 
ATOM    121  O   ASP A  17       5.529   3.560   4.729  1.00  0.00    -0.271 OA
ATOM    122  CB  ASP A  17       6.599   4.605   1.946  1.00  0.00    +0.145 C 
ATOM    123  CG  ASP A  17       5.105   4.652   1.665  1.00  0.00    +0.367 C 
ATOM    124  OD1 ASP A  17       4.336   3.933   2.339  1.00  0.00    -0.246 OA
ATOM    125  OD2 ASP A  17       4.698   5.415   0.763  1.00  0.00    -0.246 OA
ATOM    126  N   ALA A  18       4.942   5.721   4.520  1.00  0.00    -0.203 N 
ATOM    127  CA  ALA A  18       5.001   6.933   3.709  1.00  0.00    +0.131 C 
ATOM    128  C   ALA A  18       6.360   7.605   3.831  1.00  0.00    +0.208 C 
ATOM    129  O   ALA A  18       6.783   7.963   4.929  1.00  0.00    -0.345 OA
ATOM    130  CB  ALA A  18       3.914   7.912   4.123  1.00  0.00    +0.027 C 
ATOM    131  N   ILE A  19       7.043   7.778   2.704  1.00  0.00    -0.195 NA
ATOM    132  CA  ILE A  19       7.656   9.061   2.376  1.00  0.00    +0.121 C 
ATOM    133  C   ILE A  19       6.579  10.068   2.010  1.00  0.00    +0.236 C 
ATOM    134  O   ILE A  19       6.079  10.067   0.887  1.00  0.00    -0.217 OA
ATOM    135  CB  ILE A  19       8.649   8.941   1.230  1.00  0.00    +0.020 C 
ATOM    136  CG1 ILE A  19       9.882   8.152   1.665  1.00  0.00    +0.002 C 
ATOM    137  CG2 ILE A  19       9.077  10.326   0.750  1.00  0.00    +0.002 C 
ATOM    138  CD1 ILE A  19      10.978   8.090   0.614  1.00  0.00    +0.000 C 
ATOM    139  N   ARG A  20       6.219  10.928   2.959  1.00  0.00    -0.181 NA
ATOM    140  CA  ARG A  20       5.559  12.188   2.631  1.00  0.00    +0.153 C 
ATOM    141  C   ARG A  20       6.576  13.260   2.280  1.00  0.00    +0.258 C 
ATOM    142  O   ARG A  20       6.287  14.164   1.496  1.00  0.00    -0.272 OA
ATOM    143  CB  ARG A  20       4.697  12.666   3.788  1.00  0.00    +0.029 C 
ATOM    144  CG  ARG A  20       3.320  12.024   3.832  1.00  0.00    +0.028 C 
ATOM    145  CD  ARG A  20       2.814  11.676   2.441  1.00  0.00    +0.129 C 
ATOM    146  NE  ARG A  20       3.114  10.292   2.088  1.00  0.00    -0.236 NA
ATOM    147  CZ  ARG A  20       4.005   9.918   1.175  1.00  0.00    +0.276 C 
ATOM    148  NH1 ARG A  20       4.749  10.822   0.543  1.00  0.00    -0.091 N 
ATOM    149  NH2 ARG A  20       4.153   8.628   0.889  1.00  0.00    -0.085 N 
ATOM    150  N   ARG A  21       7.770  13.165   2.860  1.00  0.00    -0.194 N 
ATOM    151  CA  ARG A  21       8.037  13.775   4.158  1.00  0.00    +0.198 C 
ATOM    152  C   ARG A  21       9.021  14.926   4.026  1.00  0.00    +0.384 C 
ATOM    153  O   ARG A  21       8.662  16.083   4.240  1.00  0.00    -0.244 OA
ATOM    154  CB  ARG A  21       8.585  12.749   5.137  1.00  0.00    +0.035 C 
ATOM    155  CG  ARG A  21       7.908  11.391   5.046  1.00  0.00    +0.026 C 
ATOM    156  CD  ARG A  21       8.920  10.263   4.935  1.00  0.00    +0.117 C 
ATOM    157  NE  ARG A  21       8.326   9.064   4.347  1.00  0.00    -0.186 N 
ATOM    158  CZ  ARG A  21       7.378   8.329   4.921  1.00  0.00    +0.343 C 
ATOM    159  NH1 ARG A  21       6.685   8.800   5.954  1.00  0.00    -0.089 NA
ATOM    160  NH2 ARG A  21       7.119   7.110   4.456  1.00  0.00    -0.006 NA
ATOM    161  OXT ARG A  21      10.190  14.715   3.704  1.00  0.00    -0.244 OA
ATOM    162  H   MET A   1      12.884 -13.721  22.594  1.00  0.00    +0.000 HD
ATOM    163  H   MET A   1      14.427 -14.028  23.141  1.00  0.00    +0.000 HD
ATOM    164  H   LYS A   2      15.909 -18.119  20.742  1.00  0.00    +0.000 HD
ATOM    165  H   GLN A   3       9.868 -16.051  22.440  1.00  0.00    +0.000 HD
ATOM    166  H   GLN A   3       4.053 -16.287  23.051  1.00  0.00    +0.000 HD
ATOM    167  H   GLN A   3       5.585 -15.862  23.667  1.00  0.00    +0.000 HD
ATOM    168  H   ALA A   4       9.468 -15.911  19.924  1.00  0.00    +0.000 HD
ATOM    169  H   VAL A   5       6.906 -16.340  16.293  1.00  0.00    +0.000 HD
ATOM    170  H   ASN A   6      10.223 -15.485  12.979  1.00  0.00    +0.000 HD
ATOM    171  H   ASN A   6      12.989 -16.014  11.623  1.00  0.00    +0.000 HD
ATOM    172  H   ASN A   6      12.835 -17.592  12.250  1.00  0.00    +0.000 HD
ATOM    173  H   ALA A   7       9.779 -11.720  12.433  1.00  0.00    +0.000 HD
ATOM    174  H   LEU A   8      12.568 -11.682  12.032  1.00  0.00    +0.000 HD
ATOM    175  H   LEU A   9      15.205 -13.011   8.890  1.00  0.00    +0.000 HD
ATOM    176  H   VAL A  10      15.570  -9.081   7.427  1.00  0.00    +0.000 HD
ATOM    177  H   PHE A  11      18.235  -7.102   9.373  1.00  0.00    +0.000 HD
ATOM    178  H   PHE A  12      15.854  -6.524   7.576  1.00  0.00    +0.000 HD
ATOM    179  H   ALA A  13      13.147  -6.689   7.676  1.00  0.00    +0.000 HD
ATOM    180  H   GLY A  14      11.867  -2.331   6.789  1.00  0.00    +0.000 HD
ATOM    181  H   SER A  15       7.867  -0.892   5.765  1.00  0.00    +0.000 HD
ATOM    182  H   SER A  15       6.666   0.961   6.091  1.00  0.00    +0.000 HD
ATOM    183  H   SER A  16      10.484   2.164   3.454  1.00  0.00    +0.000 HD
ATOM    184  H   SER A  16      11.363   6.340   4.419  1.00  0.00    +0.000 HD
ATOM    185  H   ASP A  17       8.122   3.206   3.696  1.00  0.00    +0.000 HD
ATOM    186  H   ASP A  17       4.681   3.374   3.007  1.00  0.00    +0.000 HD
ATOM    187  H   ALA A  18       4.299   5.671   5.264  1.00  0.00    +0.000 HD
ATOM    188  H   ILE A  19       7.798   7.092   2.718  1.00  0.00    +0.000 HD
ATOM    189  H   ARG A  20       7.071  11.172   3.465  1.00  0.00    +0.000 HD
ATOM    190  H   ARG A  20       4.544  11.649   0.049  1.00  0.00    +0.000 HD
ATOM    191  H   ARG A  20       4.811   8.346   0.214  1.00  0.00    +0.000 HD
ATOM    192  H   ARG A  20       3.605   7.955   1.353  1.00  0.00    +0.000 HD
ATOM    193  H   ARG A  21       8.489  12.672   2.402  1.00  0.00    +0.000 HD
ATOM    194  H   ARG A  21       7.776  16.260   4.485  1.00  0.00    +0.000 HD
ATOM    195  H   ARG A  21       8.652   8.780   3.463  1.00  0.00    +0.000 HD
ATOM    196  H   ARG A  21       7.059   9.522   6.510  1.00  0.00    +0.000 HD
ATOM    197  H   ARG A  21       8.083   7.093   4.121  1.00  0.00    +0.000 HD
ENDROOT
TORSDOF 0
