REMARK  Name = /var/folders/yp/yjbh3p597675h2qddgqr02y00000gn/T/tmp2gqb96r8.pdb
REMARK     285 UNITARY VALUES FOR THE UNIT CELL AUTOMATICALLY SET
REMARK     285 BY MDANALYSIS PDBWRITER BECAUSE UNIT CELL INFORMATION
REMARK     285 WAS MISSING.
REMARK     285 PROTEIN DATA BANK CONVENTIONS REQUIRE THAT
REMARK     285 CRYST1 RECORD IS INCLUDED, BUT THE VALUES ON
REMARK     285 THIS RECORD ARE MEANINGLESS.
REMARK     285 UNITARY VALUES FOR THE UNIT CELL AUTOMATICALLY SET
REMARK     285 BY MDANALYSIS PDBWRITER BECAUSE UNIT CELL INFORMATION
REMARK     285 WAS MISSING.
REMARK     285 PROTEIN DATA BANK CONVENTIONS REQUIRE THAT
REMARK     285 CRYST1 RECORD IS INCLUDED, BUT THE VALUES ON
REMARK     285 THIS RECORD ARE MEANINGLESS.
REMARK                            x       y       z     vdW  Elec       q    Type
REMARK                         _______ _______ _______ _____ _____    ______ ____
ROOT
ATOM      1  N   MET A   1     -23.521   3.622 -34.163  1.00  0.00    -0.123 NA
ATOM      2  CA  MET A   1     -23.682   4.208 -32.836  1.00  0.00    +0.170 C 
ATOM      3  C   MET A   1     -24.964   3.721 -32.179  1.00  0.00    +0.259 C 
ATOM      4  O   MET A   1     -25.977   3.533 -32.850  1.00  0.00    -0.272 OA
ATOM      5  CB  MET A   1     -23.694   5.726 -32.911  1.00  0.00    +0.040 C 
ATOM      6  CG  MET A   1     -22.759   6.393 -31.916  1.00  0.00    +0.060 C 
ATOM      7  SD  MET A   1     -21.141   6.780 -32.629  1.00  0.00    -0.139 S 
ATOM      8  CE  MET A   1     -20.753   5.225 -33.424  1.00  0.00    +0.069 C 
ATOM      9  N   LYS A   2     -24.920   3.518 -30.865  1.00  0.00    -0.197 N 
ATOM     10  CA  LYS A   2     -26.107   3.108 -30.120  1.00  0.00    +0.173 C 
ATOM     11  C   LYS A   2     -26.403   4.077 -28.987  1.00  0.00    +0.262 C 
ATOM     12  O   LYS A   2     -25.490   4.526 -28.295  1.00  0.00    -0.271 OA
ATOM     13  CB  LYS A   2     -25.936   1.707 -29.558  1.00  0.00    +0.031 C 
ATOM     14  CG  LYS A   2     -27.193   1.144 -28.915  1.00  0.00    +0.009 C 
ATOM     15  CD  LYS A   2     -27.566  -0.210 -29.494  1.00  0.00    +0.049 C 
ATOM     16  CE  LYS A   2     -28.046  -0.095 -30.869  1.00  0.00    +0.096 C 
ATOM     17  NZ  LYS A   2     -28.445  -1.117 -31.621  1.00  0.00    -0.151 NA
ATOM     18  N   GLN A   3     -27.679   4.400 -28.796  1.00  0.00    -0.196 N 
ATOM     19  CA  GLN A   3     -28.165   4.840 -27.492  1.00  0.00    +0.173 C 
ATOM     20  C   GLN A   3     -28.326   3.664 -26.543  1.00  0.00    +0.262 C 
ATOM     21  O   GLN A   3     -28.940   2.657 -26.895  1.00  0.00    -0.271 OA
ATOM     22  CB  GLN A   3     -29.492   5.570 -27.625  1.00  0.00    +0.041 C 
ATOM     23  CG  GLN A   3     -30.103   5.977 -26.294  1.00  0.00    +0.091 C 
ATOM     24  CD  GLN A   3     -31.391   6.769 -26.455  1.00  0.00    +0.261 C 
ATOM     25  OE1 GLN A   3     -32.491   6.200 -26.456  1.00  0.00    -0.272 OA
ATOM     26  NE2 GLN A   3     -31.264   8.086 -26.591  1.00  0.00    -0.088 N 
ATOM     27  N   ALA A   4     -27.774   3.787 -25.340  1.00  0.00    -0.196 N 
ATOM     28  CA  ALA A   4     -28.585   3.770 -24.125  1.00  0.00    +0.173 C 
ATOM     29  C   ALA A   4     -29.534   4.956 -24.085  1.00  0.00    +0.262 C 
ATOM     30  O   ALA A   4     -29.188   6.049 -24.528  1.00  0.00    -0.271 OA
ATOM     31  CB  ALA A   4     -27.704   3.783 -22.888  1.00  0.00    +0.033 C 
ATOM     32  N   VAL A   5     -30.733   4.743 -23.551  1.00  0.00    -0.196 N 
ATOM     33  CA  VAL A   5     -31.352   5.717 -22.656  1.00  0.00    +0.173 C 
ATOM     34  C   VAL A   5     -31.177   5.273 -21.213  1.00  0.00    +0.262 C 
ATOM     35  O   VAL A   5     -31.595   4.177 -20.842  1.00  0.00    -0.271 OA
ATOM     36  CB  VAL A   5     -32.831   5.905 -22.954  1.00  0.00    +0.029 C 
ATOM     37  CG1 VAL A   5     -33.083   5.892 -24.460  1.00  0.00    +0.002 C 
ATOM     38  CG2 VAL A   5     -33.646   4.773 -22.330  1.00  0.00    +0.002 C 
ATOM     39  N   ASN A   6     -30.562   6.122 -20.396  1.00  0.00    -0.196 N 
ATOM     40  CA  ASN A   6     -31.050   6.367 -19.043  1.00  0.00    +0.182 C 
ATOM     41  C   ASN A   6     -32.330   7.188 -19.052  1.00  0.00    +0.262 C 
ATOM     42  O   ASN A   6     -32.381   8.256 -19.661  1.00  0.00    -0.271 OA
ATOM     43  CB  ASN A   6     -29.999   7.074 -18.203  1.00  0.00    +0.120 C 
ATOM     44  CG  ASN A   6     -30.258   6.944 -16.712  1.00  0.00    +0.270 C 
ATOM     45  OD1 ASN A   6     -29.351   6.640 -15.938  1.00  0.00    -0.271 OA
ATOM     46  ND2 ASN A   6     -31.503   7.175 -16.302  1.00  0.00    -0.061 N 
ATOM     47  N   ALA A   7     -33.362   6.692 -18.378  1.00  0.00    -0.202 N 
ATOM     48  CA  ALA A   7     -34.237   7.550 -17.584  1.00  0.00    +0.142 C 
ATOM     49  C   ALA A   7     -33.467   8.226 -16.462  1.00  0.00    +0.238 C 
ATOM     50  O   ALA A   7     -32.586   7.619 -15.855  1.00  0.00    -0.227 OA
ATOM     51  CB  ALA A   7     -35.391   6.752 -16.999  1.00  0.00    +0.028 C 
ATOM     52  N   LEU A   8     -33.797   9.485 -16.187  1.00  0.00    -0.180 NA
ATOM     53  CA  LEU A   8     -32.830  10.572 -16.318  1.00  0.00    +0.153 C 
ATOM     54  C   LEU A   8     -31.972  10.685 -15.069  1.00  0.00    +0.258 C 
ATOM     55  O   LEU A   8     -32.475  10.561 -13.953  1.00  0.00    -0.272 OA
ATOM     56  CB  LEU A   8     -33.536  11.892 -16.572  1.00  0.00    +0.027 C 
ATOM     57  CG  LEU A   8     -34.237  12.032 -17.925  1.00  0.00    +0.002 C 
ATOM     58  CD1 LEU A   8     -33.979  13.415 -18.513  1.00  0.00    +0.000 C 
ATOM     59  CD2 LEU A   8     -35.747  12.138 -17.737  1.00  0.00    +0.000 C 
ATOM     60  N   LEU A   9     -30.677  10.924 -15.256  1.00  0.00    -0.197 N 
ATOM     61  CA  LEU A   9     -29.902  11.711 -14.299  1.00  0.00    +0.173 C 
ATOM     62  C   LEU A   9     -29.428  13.011 -14.926  1.00  0.00    +0.262 C 
ATOM     63  O   LEU A   9     -29.206  13.079 -16.134  1.00  0.00    -0.271 OA
ATOM     64  CB  LEU A   9     -28.705  10.921 -13.797  1.00  0.00    +0.031 C 
ATOM     65  CG  LEU A   9     -29.009   9.789 -12.814  1.00  0.00    +0.002 C 
ATOM     66  CD1 LEU A   9     -27.723   9.077 -12.414  1.00  0.00    +0.000 C 
ATOM     67  CD2 LEU A   9     -29.703   8.632 -13.526  1.00  0.00    +0.000 C 
ATOM     68  N   VAL A  10     -29.269  14.045 -14.106  1.00  0.00    -0.196 N 
ATOM     69  CA  VAL A  10     -27.941  14.544 -13.757  1.00  0.00    +0.173 C 
ATOM     70  C   VAL A  10     -27.404  13.779 -12.559  1.00  0.00    +0.262 C 
ATOM     71  O   VAL A  10     -27.917  13.913 -11.450  1.00  0.00    -0.271 OA
ATOM     72  CB  VAL A  10     -27.959  16.031 -13.444  1.00  0.00    +0.029 C 
ATOM     73  CG1 VAL A  10     -26.578  16.646 -13.665  1.00  0.00    +0.002 C 
ATOM     74  CG2 VAL A  10     -28.949  16.756 -14.351  1.00  0.00    +0.002 C 
ATOM     75  N   PHE A  11     -26.369  12.974 -12.781  1.00  0.00    -0.196 N 
ATOM     76  CA  PHE A  11     -25.731  12.237 -11.695  1.00  0.00    +0.177 C 
ATOM     77  C   PHE A  11     -24.700  13.103 -10.988  1.00  0.00    +0.262 C 
ATOM     78  O   PHE A  11     -24.585  13.065  -9.765  1.00  0.00    -0.271 OA
ATOM     79  CB  PHE A  11     -25.064  10.974 -12.213  1.00  0.00    +0.057 C 
ATOM     80  CG  PHE A  11     -24.497  10.101 -11.134  1.00  0.00    -0.023 A 
ATOM     81  CD1 PHE A  11     -25.240   9.034 -10.639  1.00  0.00    -0.004 A 
ATOM     82  CE1 PHE A  11     -24.715   8.226  -9.639  1.00  0.00    -0.001 A 
ATOM     83  CD2 PHE A  11     -23.228  10.358 -10.627  1.00  0.00    -0.018 A 
ATOM     84  CE2 PHE A  11     -22.703   9.548  -9.627  1.00  0.00    -0.015 A 
ATOM     85  CZ  PHE A  11     -23.446   8.482  -9.133  1.00  0.00    -0.004 A 
ATOM     86  N   PHE A  12     -23.949  13.883 -11.759  1.00  0.00    -0.196 N 
ATOM     87  CA  PHE A  12     -22.566  14.192 -11.410  1.00  0.00    +0.177 C 
ATOM     88  C   PHE A  12     -22.312  15.689 -11.482  1.00  0.00    +0.262 C 
ATOM     89  O   PHE A  12     -22.710  16.344 -12.443  1.00  0.00    -0.271 OA
ATOM     90  CB  PHE A  12     -21.599  13.470 -12.335  1.00  0.00    +0.053 C 
ATOM     91  CG  PHE A  12     -21.421  12.016 -12.010  1.00  0.00    -0.041 C 
ATOM     92  CD1 PHE A  12     -21.093  11.114 -13.016  1.00  0.00    +0.047 C 
ATOM     93  CE1 PHE A  12     -20.928   9.767 -12.715  1.00  0.00    -0.025 C 
ATOM     94  CD2 PHE A  12     -21.585  11.571 -10.704  1.00  0.00    -0.023 C 
ATOM     95  CE2 PHE A  12     -21.421  10.223 -10.403  1.00  0.00    +0.073 C 
ATOM     96  CZ  PHE A  12     -21.093   9.322 -11.409  1.00  0.00    -0.019 C 
ATOM     97  N   ALA A  13     -21.650  16.232 -10.464  1.00  0.00    -0.196 N 
ATOM     98  CA  ALA A  13     -20.469  17.061 -10.680  1.00  0.00    +0.173 C 
ATOM     99  C   ALA A  13     -19.317  16.237 -11.234  1.00  0.00    +0.262 C 
ATOM    100  O   ALA A  13     -19.194  15.052 -10.929  1.00  0.00    -0.271 OA
ATOM    101  CB  ALA A  13     -20.036  17.735  -9.389  1.00  0.00    +0.033 C 
ATOM    102  N   GLY A  14     -18.473  16.863 -12.048  1.00  0.00    -0.194 N 
ATOM    103  CA  GLY A  14     -17.146  16.321 -12.333  1.00  0.00    +0.201 C 
ATOM    104  C   GLY A  14     -16.169  16.671 -11.223  1.00  0.00    +0.264 C 
ATOM    105  O   GLY A  14     -16.547  17.288 -10.229  1.00  0.00    -0.271 OA
ATOM    106  N   SER A  15     -14.911  16.276 -11.392  1.00  0.00    -0.194 N 
ATOM    107  CA  SER A  15     -13.849  16.714 -10.491  1.00  0.00    +0.205 C 
ATOM    108  C   SER A  15     -13.443  18.151 -10.775  1.00  0.00    +0.264 C 
ATOM    109  O   SER A  15     -13.644  18.650 -11.881  1.00  0.00    -0.271 OA
ATOM    110  CB  SER A  15     -12.633  15.810 -10.613  1.00  0.00    +0.213 C 
ATOM    111  OG  SER A  15     -12.000  15.985 -11.868  1.00  0.00    -0.218 OA
ATOM    112  N   SER A  16     -12.869  18.818  -9.777  1.00  0.00    -0.194 N 
ATOM    113  CA  SER A  16     -11.801  19.782 -10.021  1.00  0.00    +0.205 C 
ATOM    114  C   SER A  16     -10.535  19.092 -10.501  1.00  0.00    +0.264 C 
ATOM    115  O   SER A  16     -10.143  18.060  -9.961  1.00  0.00    -0.271 OA
ATOM    116  CB  SER A  16     -11.500  20.579  -8.762  1.00  0.00    +0.213 C 
ATOM    117  OG  SER A  16     -10.812  19.781  -7.815  1.00  0.00    -0.218 OA
ATOM    118  N   ASP A  17      -9.892  19.664 -11.516  1.00  0.00    -0.196 N 
ATOM    119  CA  ASP A  17      -8.439  19.803 -11.513  1.00  0.00    +0.184 C 
ATOM    120  C   ASP A  17      -8.031  21.265 -11.595  1.00  0.00    +0.262 C 
ATOM    121  O   ASP A  17      -8.271  21.924 -12.606  1.00  0.00    -0.271 OA
ATOM    122  CB  ASP A  17      -7.819  19.038 -12.671  1.00  0.00    +0.145 C 
ATOM    123  CG  ASP A  17      -6.300  19.025 -12.632  1.00  0.00    +0.367 C 
ATOM    124  OD1 ASP A  17      -5.706  19.727 -11.785  1.00  0.00    -0.246 OA
ATOM    125  OD2 ASP A  17      -5.694  18.304 -13.454  1.00  0.00    -0.246 OA
ATOM    126  N   ALA A  18      -7.414  21.773 -10.532  1.00  0.00    -0.196 N 
ATOM    127  CA  ALA A  18      -8.148  22.504  -9.504  1.00  0.00    +0.173 C 
ATOM    128  C   ALA A  18      -7.554  23.886  -9.286  1.00  0.00    +0.262 C 
ATOM    129  O   ALA A  18      -6.340  24.064  -9.374  1.00  0.00    -0.271 OA
ATOM    130  CB  ALA A  18      -8.146  21.738  -8.191  1.00  0.00    +0.033 C 
ATOM    131  N   ILE A  19      -8.408  24.865  -9.003  1.00  0.00    -0.196 N 
ATOM    132  CA  ILE A  19      -7.943  26.213  -8.690  1.00  0.00    +0.173 C 
ATOM    133  C   ILE A  19      -8.206  26.519  -7.224  1.00  0.00    +0.262 C 
ATOM    134  O   ILE A  19      -9.347  26.455  -6.767  1.00  0.00    -0.271 OA
ATOM    135  CB  ILE A  19      -8.618  27.263  -9.557  1.00  0.00    +0.029 C 
ATOM    136  CG1 ILE A  19      -8.790  26.752 -10.986  1.00  0.00    +0.002 C 
ATOM    137  CG2 ILE A  19      -7.798  28.549  -9.574  1.00  0.00    +0.002 C 
ATOM    138  CD1 ILE A  19      -9.514  27.723 -11.906  1.00  0.00    +0.000 C 
ATOM    139  N   ARG A  20      -7.152  26.851  -6.485  1.00  0.00    -0.196 N 
ATOM    140  CA  ARG A  20      -7.292  27.665  -5.282  1.00  0.00    +0.173 C 
ATOM    141  C   ARG A  20      -7.760  29.071  -5.627  1.00  0.00    +0.262 C 
ATOM    142  O   ARG A  20      -8.556  29.660  -4.898  1.00  0.00    -0.271 OA
ATOM    143  CB  ARG A  20      -5.980  27.740  -4.520  1.00  0.00    +0.033 C 
ATOM    144  CG  ARG A  20      -6.089  28.435  -3.173  1.00  0.00    +0.029 C 
ATOM    145  CD  ARG A  20      -4.746  28.512  -2.466  1.00  0.00    +0.129 C 
ATOM    146  NE  ARG A  20      -4.541  27.376  -1.572  1.00  0.00    -0.234 NA
ATOM    147  CZ  ARG A  20      -4.575  27.441  -0.243  1.00  0.00    +0.284 C 
ATOM    148  NH1 ARG A  20      -4.716  28.610   0.375  1.00  0.00    -0.104 N 
ATOM    149  NH2 ARG A  20      -4.466  26.325   0.472  1.00  0.00    -0.104 N 
ATOM    150  N   ARG A  21      -7.264  29.609  -6.737  1.00  0.00    -0.194 N 
ATOM    151  CA  ARG A  21      -7.046  31.048  -6.854  1.00  0.00    +0.198 C 
ATOM    152  C   ARG A  21      -8.108  31.690  -7.728  1.00  0.00    +0.384 C 
ATOM    153  O   ARG A  21      -8.482  32.844  -7.514  1.00  0.00    -0.244 OA
ATOM    154  CB  ARG A  21      -5.669  31.343  -7.427  1.00  0.00    +0.035 C 
ATOM    155  CG  ARG A  21      -4.523  30.855  -6.557  1.00  0.00    +0.029 C 
ATOM    156  CD  ARG A  21      -4.226  31.820  -5.421  1.00  0.00    +0.129 C 
ATOM    157  NE  ARG A  21      -3.030  31.430  -4.680  1.00  0.00    -0.234 NA
ATOM    158  CZ  ARG A  21      -2.782  31.753  -3.414  1.00  0.00    +0.284 C 
ATOM    159  NH1 ARG A  21      -3.616  32.540  -2.740  1.00  0.00    -0.104 N 
ATOM    160  NH2 ARG A  21      -1.692  31.283  -2.817  1.00  0.00    -0.104 N 
ATOM    161  OXT ARG A  21      -8.611  31.067  -8.663  1.00  0.00    -0.244 OA
ATOM    162  H   MET A   1     -22.656   3.963 -34.583  1.00  0.00    +0.000 HD
ATOM    163  H   MET A   1     -24.311   3.888 -34.751  1.00  0.00    +0.000 HD
ATOM    164  H   LYS A   2     -24.070   3.646 -30.385  1.00  0.00    +0.000 HD
ATOM    165  H   LYS A   2     -28.428  -2.032 -31.257  1.00  0.00    +0.000 HD
ATOM    166  H   GLN A   3     -28.308   4.342 -29.551  1.00  0.00    +0.000 HD
ATOM    167  H   GLN A   3     -30.370   8.497 -26.584  1.00  0.00    +0.000 HD
ATOM    168  H   GLN A   3     -32.064   8.649 -26.697  1.00  0.00    +0.000 HD
ATOM    169  H   ALA A   4     -26.798   3.893 -25.265  1.00  0.00    +0.000 HD
ATOM    170  H   VAL A   5     -31.215   3.912 -23.763  1.00  0.00    +0.000 HD
ATOM    171  H   ASN A   6     -29.759   6.597 -20.712  1.00  0.00    +0.000 HD
ATOM    172  H   ASN A   6     -31.851   6.285 -16.541  1.00  0.00    +0.000 HD
ATOM    173  H   ALA A   7     -33.541   5.724 -18.415  1.00  0.00    +0.000 HD
ATOM    174  H   LEU A   8     -34.578   9.719 -16.800  1.00  0.00    +0.000 HD
ATOM    175  H   LEU A   9     -30.231  10.563 -16.056  1.00  0.00    +0.000 HD
ATOM    176  H   VAL A  10     -30.063  14.484 -13.726  1.00  0.00    +0.000 HD
ATOM    177  H   PHE A  11     -26.024  12.874 -13.698  1.00  0.00    +0.000 HD
ATOM    178  H   PHE A  12     -24.335  14.261 -12.583  1.00  0.00    +0.000 HD
ATOM    179  H   ALA A  13     -21.964  16.071  -9.545  1.00  0.00    +0.000 HD
ATOM    180  H   GLY A  14     -18.747  17.711 -12.468  1.00  0.00    +0.000 HD
ATOM    181  H   SER A  15     -14.690  15.675 -12.141  1.00  0.00    +0.000 HD
ATOM    182  H   SER A  15     -11.706  16.905 -11.956  1.00  0.00    +0.000 HD
ATOM    183  H   SER A  16     -13.172  18.657  -8.854  1.00  0.00    +0.000 HD
ATOM    184  H   SER A  16     -11.364  19.022  -7.571  1.00  0.00    +0.000 HD
ATOM    185  H   ASP A  17     -10.407  20.000 -12.285  1.00  0.00    +0.000 HD
ATOM    186  H   ASP A  17      -6.197  20.254 -11.186  1.00  0.00    +0.000 HD
ATOM    187  H   ALA A  18      -6.441  21.653 -10.436  1.00  0.00    +0.000 HD
ATOM    188  H   ILE A  19      -9.375  24.677  -9.004  1.00  0.00    +0.000 HD
ATOM    189  H   ARG A  20      -6.257  26.542  -6.756  1.00  0.00    +0.000 HD
ATOM    190  H   ARG A  20      -4.798  29.438  -0.151  1.00  0.00    +0.000 HD
ATOM    191  H   ARG A  20      -4.740  28.647   1.358  1.00  0.00    +0.000 HD
ATOM    192  H   ARG A  20      -4.361  25.458   0.018  1.00  0.00    +0.000 HD
ATOM    193  H   ARG A  20      -4.490  26.367   1.455  1.00  0.00    +0.000 HD
ATOM    194  H   ARG A  21      -7.039  29.024  -7.496  1.00  0.00    +0.000 HD
ATOM    195  H   ARG A  21      -8.110  33.332  -6.807  1.00  0.00    +0.000 HD
ATOM    196  H   ARG A  21      -4.425  32.890  -3.179  1.00  0.00    +0.000 HD
ATOM    197  H   ARG A  21      -3.424  32.772  -1.803  1.00  0.00    +0.000 HD
ATOM    198  H   ARG A  21      -1.072  30.700  -3.312  1.00  0.00    +0.000 HD
ATOM    199  H   ARG A  21      -1.505  31.518  -1.879  1.00  0.00    +0.000 HD
ENDROOT
TORSDOF 0
