REMARK  Name = /var/folders/yp/yjbh3p597675h2qddgqr02y00000gn/T/tmpyvcqjt_7.pdb
REMARK     285 UNITARY VALUES FOR THE UNIT CELL AUTOMATICALLY SET
REMARK     285 BY MDANALYSIS PDBWRITER BECAUSE UNIT CELL INFORMATION
REMARK     285 WAS MISSING.
REMARK     285 PROTEIN DATA BANK CONVENTIONS REQUIRE THAT
REMARK     285 CRYST1 RECORD IS INCLUDED, BUT THE VALUES ON
REMARK     285 THIS RECORD ARE MEANINGLESS.
REMARK     285 UNITARY VALUES FOR THE UNIT CELL AUTOMATICALLY SET
REMARK     285 BY MDANALYSIS PDBWRITER BECAUSE UNIT CELL INFORMATION
REMARK     285 WAS MISSING.
REMARK     285 PROTEIN DATA BANK CONVENTIONS REQUIRE THAT
REMARK     285 CRYST1 RECORD IS INCLUDED, BUT THE VALUES ON
REMARK     285 THIS RECORD ARE MEANINGLESS.
REMARK                            x       y       z     vdW  Elec       q    Type
REMARK                         _______ _______ _______ _____ _____    ______ ____
REMARK  Name = /var/folders/yp/yjbh3p597675h2qddgqr02y00000gn/T/tmpyvcqjt_7.pdb
REMARK     285 UNITARY VALUES FOR THE UNIT CELL AUTOMATICALLY SET
REMARK     285 BY MDANALYSIS PDBWRITER BECAUSE UNIT CELL INFORMATION
REMARK     285 WAS MISSING.
REMARK     285 PROTEIN DATA BANK CONVENTIONS REQUIRE THAT
REMARK     285 CRYST1 RECORD IS INCLUDED, BUT THE VALUES ON
REMARK     285 THIS RECORD ARE MEANINGLESS.
REMARK     285 UNITARY VALUES FOR THE UNIT CELL AUTOMATICALLY SET
REMARK     285 BY MDANALYSIS PDBWRITER BECAUSE UNIT CELL INFORMATION
REMARK     285 WAS MISSING.
REMARK     285 PROTEIN DATA BANK CONVENTIONS REQUIRE THAT
REMARK     285 CRYST1 RECORD IS INCLUDED, BUT THE VALUES ON
REMARK     285 THIS RECORD ARE MEANINGLESS.
REMARK                            x       y       z     vdW  Elec       q    Type
REMARK                         _______ _______ _______ _____ _____    ______ ____
REMARK  Name = /var/folders/yp/yjbh3p597675h2qddgqr02y00000gn/T/tmpyvcqjt_7.pdb
REMARK     285 UNITARY VALUES FOR THE UNIT CELL AUTOMATICALLY SET
REMARK     285 BY MDANALYSIS PDBWRITER BECAUSE UNIT CELL INFORMATION
REMARK     285 WAS MISSING.
REMARK     285 PROTEIN DATA BANK CONVENTIONS REQUIRE THAT
REMARK     285 CRYST1 RECORD IS INCLUDED, BUT THE VALUES ON
REMARK     285 THIS RECORD ARE MEANINGLESS.
REMARK     285 UNITARY VALUES FOR THE UNIT CELL AUTOMATICALLY SET
REMARK     285 BY MDANALYSIS PDBWRITER BECAUSE UNIT CELL INFORMATION
REMARK     285 WAS MISSING.
REMARK     285 PROTEIN DATA BANK CONVENTIONS REQUIRE THAT
REMARK     285 CRYST1 RECORD IS INCLUDED, BUT THE VALUES ON
REMARK     285 THIS RECORD ARE MEANINGLESS.
REMARK                            x       y       z     vdW  Elec       q    Type
REMARK                         _______ _______ _______ _____ _____    ______ ____
REMARK  Name = /var/folders/yp/yjbh3p597675h2qddgqr02y00000gn/T/tmpyvcqjt_7.pdb
REMARK     285 UNITARY VALUES FOR THE UNIT CELL AUTOMATICALLY SET
REMARK     285 BY MDANALYSIS PDBWRITER BECAUSE UNIT CELL INFORMATION
REMARK     285 WAS MISSING.
REMARK     285 PROTEIN DATA BANK CONVENTIONS REQUIRE THAT
REMARK     285 CRYST1 RECORD IS INCLUDED, BUT THE VALUES ON
REMARK     285 THIS RECORD ARE MEANINGLESS.
REMARK     285 UNITARY VALUES FOR THE UNIT CELL AUTOMATICALLY SET
REMARK     285 BY MDANALYSIS PDBWRITER BECAUSE UNIT CELL INFORMATION
REMARK     285 WAS MISSING.
REMARK     285 PROTEIN DATA BANK CONVENTIONS REQUIRE THAT
REMARK     285 CRYST1 RECORD IS INCLUDED, BUT THE VALUES ON
REMARK     285 THIS RECORD ARE MEANINGLESS.
REMARK                            x       y       z     vdW  Elec       q    Type
REMARK                         _______ _______ _______ _____ _____    ______ ____
ROOT
ATOM      1  N   MET A   1     -11.023  12.920  38.715  1.00  0.00    -0.123 NA
ATOM      2  CA  MET A   1     -10.645  12.860  37.306  1.00  0.00    +0.170 C 
ATOM      3  C   MET A   1      -9.219  12.357  37.147  1.00  0.00    +0.259 C 
ATOM      4  O   MET A   1      -8.390  12.540  38.037  1.00  0.00    -0.272 OA
ATOM      5  CB  MET A   1     -10.777  14.225  36.650  1.00  0.00    +0.040 C 
ATOM      6  CG  MET A   1     -12.187  14.790  36.699  1.00  0.00    +0.060 C 
ATOM      7  SD  MET A   1     -13.288  14.027  35.481  1.00  0.00    -0.139 S 
ATOM      8  CE  MET A   1     -13.627  12.462  36.280  1.00  0.00    +0.069 C 
ATOM      9  N   LYS A   2      -8.932  11.724  36.014  1.00  0.00    -0.197 N 
ATOM     10  CA  LYS A   2      -7.613  11.144  35.780  1.00  0.00    +0.173 C 
ATOM     11  C   LYS A   2      -6.576  12.228  35.532  1.00  0.00    +0.262 C 
ATOM     12  O   LYS A   2      -5.461  12.152  36.045  1.00  0.00    -0.271 OA
ATOM     13  CB  LYS A   2      -7.645  10.191  34.595  1.00  0.00    +0.031 C 
ATOM     14  CG  LYS A   2      -6.288   9.605  34.243  1.00  0.00    +0.009 C 
ATOM     15  CD  LYS A   2      -6.307   8.907  32.893  1.00  0.00    +0.049 C 
ATOM     16  CE  LYS A   2      -6.763   9.798  31.830  1.00  0.00    +0.096 C 
ATOM     17  NZ  LYS A   2      -7.176   9.400  30.631  1.00  0.00    -0.151 NA
ATOM     18  N   GLN A   3      -6.941  13.234  34.742  1.00  0.00    -0.196 N 
ATOM     19  CA  GLN A   3      -5.953  14.029  34.019  1.00  0.00    +0.173 C 
ATOM     20  C   GLN A   3      -5.366  15.112  34.910  1.00  0.00    +0.262 C 
ATOM     21  O   GLN A   3      -6.078  15.723  35.704  1.00  0.00    -0.271 OA
ATOM     22  CB  GLN A   3      -6.570  14.666  32.785  1.00  0.00    +0.041 C 
ATOM     23  CG  GLN A   3      -6.872  13.677  31.671  1.00  0.00    +0.091 C 
ATOM     24  CD  GLN A   3      -7.753  14.268  30.583  1.00  0.00    +0.261 C 
ATOM     25  OE1 GLN A   3      -7.663  15.466  30.272  1.00  0.00    -0.272 OA
ATOM     26  NE2 GLN A   3      -8.610  13.439  29.996  1.00  0.00    -0.088 N 
ATOM     27  N   ALA A   4      -4.064  15.350  34.779  1.00  0.00    -0.196 N 
ATOM     28  CA  ALA A   4      -3.523  16.701  34.890  1.00  0.00    +0.173 C 
ATOM     29  C   ALA A   4      -4.009  17.581  33.749  1.00  0.00    +0.262 C 
ATOM     30  O   ALA A   4      -4.117  17.126  32.611  1.00  0.00    -0.271 OA
ATOM     31  CB  ALA A   4      -2.003  16.676  34.899  1.00  0.00    +0.033 C 
ATOM     32  N   VAL A   5      -4.305  18.841  34.052  1.00  0.00    -0.196 N 
ATOM     33  CA  VAL A   5      -3.335  19.916  33.862  1.00  0.00    +0.173 C 
ATOM     34  C   VAL A   5      -2.123  19.680  34.747  1.00  0.00    +0.261 C 
ATOM     35  O   VAL A   5      -2.245  19.629  35.970  1.00  0.00    -0.271 OA
ATOM     36  CB  VAL A   5      -3.931  21.280  34.171  1.00  0.00    +0.029 C 
ATOM     37  CG1 VAL A   5      -3.139  22.386  33.479  1.00  0.00    +0.002 C 
ATOM     38  CG2 VAL A   5      -5.375  21.356  33.677  1.00  0.00    +0.002 C 
ATOM     39  N   ASN A   6      -0.954  19.535  34.131  1.00  0.00    -0.203 N 
ATOM     40  CA  ASN A   6       0.282  20.051  34.714  1.00  0.00    +0.125 C 
ATOM     41  CB  ASN A   6       1.497  19.361  34.115  1.00  0.00    +0.112 C 
ATOM     42  CG  ASN A   6       2.686  19.348  35.059  1.00  0.00    +0.263 C 
ATOM     43  OD1 ASN A   6       2.527  19.420  36.277  1.00  0.00    -0.272 OA
ATOM     44  ND2 ASN A   6       3.888  19.256  34.497  1.00  0.00    -0.088 N 
ATOM     45  H   MET A   1     -11.982  13.259  38.795  1.00  0.00    +0.000 HD
ATOM     46  H   MET A   1     -10.396  13.554  39.209  1.00  0.00    +0.000 HD
ATOM     47  H   LYS A   2      -9.625  11.644  35.318  1.00  0.00    +0.000 HD
ATOM     48  H   LYS A   2      -7.190   8.441  30.408  1.00  0.00    +0.000 HD
ATOM     49  H   GLN A   3      -7.897  13.446  34.644  1.00  0.00    +0.000 HD
ATOM     50  H   GLN A   3      -9.205  13.768  29.284  1.00  0.00    +0.000 HD
ATOM     51  H   GLN A   3      -8.650  12.495  30.273  1.00  0.00    +0.000 HD
ATOM     52  H   ALA A   4      -3.453  14.600  34.602  1.00  0.00    +0.000 HD
ATOM     53  H   VAL A   5      -5.196  19.054  34.412  1.00  0.00    +0.000 HD
ATOM     54  H   ASN A   6      -0.920  19.070  33.264  1.00  0.00    +0.000 HD
ATOM     55  H   ASN A   6       4.695  19.243  35.061  1.00  0.00    +0.000 HD
ATOM     56  H   ASN A   6       3.970  19.199  33.518  1.00  0.00    +0.000 HD
ATOM      1  C   ASN A   6       0.404  21.555  34.518  1.00  0.00    +0.217 C 
ATOM      2  O   ASN A   6       1.180  22.212  35.209  1.00  0.00    -0.217 OA
ATOM      3  C   LEU A   9       1.726  23.180  35.575  1.00  0.00    +0.217 C 
ATOM      4  O   LEU A   9       0.782  22.510  35.156  1.00  0.00    -0.217 OA
ATOM      1  N   ALA A   7      -0.364  22.098  33.579  1.00  0.00    -0.123 NA
ATOM      2  CA  ALA A   7      -0.061  23.411  33.014  1.00  0.00    +0.169 C 
ATOM      3  C   ALA A   7      -0.363  24.517  34.010  1.00  0.00    +0.259 C 
ATOM      4  O   ALA A   7      -0.110  25.690  33.737  1.00  0.00    -0.272 OA
ATOM      5  CB  ALA A   7      -0.854  23.644  31.738  1.00  0.00    +0.030 C 
ATOM      6  N   LEU A   8      -0.907  24.146  35.166  1.00  0.00    -0.197 N 
ATOM      7  CA  LEU A   8      -1.179  25.115  36.225  1.00  0.00    +0.173 C 
ATOM      8  C   LEU A   8      -0.055  25.127  37.248  1.00  0.00    +0.261 C 
ATOM      9  O   LEU A   8       0.315  26.185  37.757  1.00  0.00    -0.271 OA
ATOM     10  CB  LEU A   8      -2.494  24.800  36.919  1.00  0.00    +0.031 C 
ATOM     11  CG  LEU A   8      -3.758  25.330  36.239  1.00  0.00    +0.002 C 
ATOM     12  CD1 LEU A   8      -4.973  25.099  37.129  1.00  0.00    +0.000 C 
ATOM     13  CD2 LEU A   8      -4.153  24.434  35.070  1.00  0.00    +0.000 C 
ATOM     14  N   LEU A   9       0.490  23.953  37.550  1.00  0.00    -0.204 N 
ATOM     15  CA  LEU A   9       1.804  23.571  37.041  1.00  0.00    +0.115 C 
ATOM     16  CB  LEU A   9       2.378  22.415  37.845  1.00  0.00    +0.023 C 
ATOM     17  CG  LEU A   9       2.874  22.755  39.251  1.00  0.00    +0.002 C 
ATOM     18  CD1 LEU A   9       3.904  21.729  39.709  1.00  0.00    +0.000 C 
ATOM     19  CD2 LEU A   9       1.789  22.471  40.286  1.00  0.00    +0.000 C 
ATOM     20  H   ALA A   7       0.178  21.961  34.433  1.00  0.00    +0.000 HD
ATOM     21  H   ALA A   7      -0.122  21.373  32.903  1.00  0.00    +0.000 HD
ATOM     22  H   LEU A   8      -1.129  23.198  35.312  1.00  0.00    +0.000 HD
ATOM     23  H   LEU A   9      -0.003  23.328  38.129  1.00  0.00    +0.000 HD
ATOM      1  N   VAL A  10       2.718  23.595  34.792  1.00  0.00    -0.123 NA
ATOM      2  CA  VAL A  10       3.303  22.723  33.778  1.00  0.00    +0.169 C 
ATOM      3  C   VAL A  10       4.777  22.506  34.077  1.00  0.00    +0.259 C 
ATOM      4  O   VAL A  10       5.468  23.425  34.515  1.00  0.00    -0.272 OA
ATOM      5  CB  VAL A  10       3.147  23.294  32.379  1.00  0.00    +0.027 C 
ATOM      6  CG1 VAL A  10       3.012  22.174  31.351  1.00  0.00    +0.002 C 
ATOM      7  CG2 VAL A  10       1.895  24.164  32.295  1.00  0.00    +0.002 C 
ATOM      8  N   PHE A  11       5.262  21.290  33.840  1.00  0.00    -0.194 N 
ATOM      9  CA  PHE A  11       6.664  21.086  33.485  1.00  0.00    +0.200 C 
ATOM     10  C   PHE A  11       6.903  21.420  32.022  1.00  0.00    +0.264 C 
ATOM     11  O   PHE A  11       6.072  21.117  31.168  1.00  0.00    -0.271 OA
ATOM     12  CB  PHE A  11       7.086  19.650  33.754  1.00  0.00    +0.149 C 
ATOM     13  CG  PHE A  11       8.077  19.115  32.763  1.00  0.00    +0.068 C 
ATOM     14  CD1 PHE A  11       9.438  19.323  32.957  1.00  0.00    +0.094 C 
ATOM     15  CE1 PHE A  11      10.354  18.827  32.039  1.00  0.00    +0.090 C 
ATOM     16  CD2 PHE A  11       7.634  18.409  31.651  1.00  0.00    -0.027 C 
ATOM     17  CE2 PHE A  11       8.552  17.912  30.732  1.00  0.00    -0.030 C 
ATOM     18  CZ  PHE A  11       9.912  18.122  30.926  1.00  0.00    +0.030 C 
ATOM     19  N   PHE A  12       8.040  22.045  31.733  1.00  0.00    -0.196 N 
ATOM     20  CA  PHE A  12       9.271  21.766  32.468  1.00  0.00    +0.177 C 
ATOM     21  C   PHE A  12       9.240  22.425  33.837  1.00  0.00    +0.262 C 
ATOM     22  O   PHE A  12       8.599  23.460  34.018  1.00  0.00    -0.271 OA
ATOM     23  CB  PHE A  12      10.486  22.255  31.697  1.00  0.00    +0.057 C 
ATOM     24  CG  PHE A  12      10.410  22.002  30.220  1.00  0.00    -0.020 A 
ATOM     25  CD1 PHE A  12       9.269  21.430  29.670  1.00  0.00    -0.004 A 
ATOM     26  CE1 PHE A  12       9.199  21.197  28.302  1.00  0.00    -0.000 A 
ATOM     27  CD2 PHE A  12      11.482  22.341  29.402  1.00  0.00    -0.004 A 
ATOM     28  CE2 PHE A  12      11.412  22.107  28.034  1.00  0.00    -0.000 A 
ATOM     29  CZ  PHE A  12      10.271  21.535  27.483  1.00  0.00    -0.000 A 
ATOM     30  N   ALA A  13       9.932  21.826  34.803  1.00  0.00    -0.204 N 
ATOM     31  CA  ALA A  13      10.656  20.582  34.560  1.00  0.00    +0.115 C 
ATOM     32  C   ALA A  13       9.725  19.500  34.035  1.00  0.00    +0.158 C 
ATOM     33  O   ALA A  13       8.614  19.334  34.538  1.00  0.00    -0.352 OA
ATOM     34  CB  ALA A  13      11.332  20.095  35.831  1.00  0.00    +0.025 C 
ATOM     35  N   GLY A  14      10.175  18.766  33.022  1.00  0.00    -0.262 NA
ATOM     36  CA  GLY A  14       9.649  17.430  32.760  1.00  0.00    +0.160 C 
ATOM     37  C   GLY A  14      10.192  16.427  33.766  1.00  0.00    +0.258 C 
ATOM     38  O   GLY A  14      10.929  16.796  34.679  1.00  0.00    -0.272 OA
ATOM     39  N   SER A  15       9.827  15.158  33.599  1.00  0.00    -0.194 N 
ATOM     40  CA  SER A  15      10.280  14.112  34.512  1.00  0.00    +0.205 C 
ATOM     41  C   SER A  15      11.758  13.815  34.320  1.00  0.00    +0.264 C 
ATOM     42  O   SER A  15      12.270  13.888  33.204  1.00  0.00    -0.271 OA
ATOM     43  CB  SER A  15       9.476  12.839  34.308  1.00  0.00    +0.213 C 
ATOM     44  OG  SER A  15       9.814  12.223  33.076  1.00  0.00    -0.218 OA
ATOM     45  N   SER A  16      12.445  13.478  35.409  1.00  0.00    -0.194 N 
ATOM     46  CA  SER A  16      13.501  12.471  35.361  1.00  0.00    +0.205 C 
ATOM     47  C   SER A  16      12.951  11.115  34.954  1.00  0.00    +0.264 C 
ATOM     48  O   SER A  16      13.676  10.281  34.413  1.00  0.00    -0.271 OA
ATOM     49  CB  SER A  16      14.192  12.355  36.709  1.00  0.00    +0.213 C 
ATOM     50  OG  SER A  16      13.262  12.015  37.723  1.00  0.00    -0.218 OA
ATOM     51  N   ASP A  17      11.665  10.891  35.216  1.00  0.00    -0.196 N 
ATOM     52  CA  ASP A  17      11.215   9.625  35.789  1.00  0.00    +0.184 C 
ATOM     53  C   ASP A  17      10.490   8.783  34.751  1.00  0.00    +0.262 C 
ATOM     54  O   ASP A  17       9.534   9.245  34.131  1.00  0.00    -0.271 OA
ATOM     55  CB  ASP A  17      10.300   9.863  36.980  1.00  0.00    +0.145 C 
ATOM     56  CG  ASP A  17       9.592  11.207  36.926  1.00  0.00    +0.367 C 
ATOM     57  OD1 ASP A  17      10.111  12.145  36.280  1.00  0.00    -0.246 OA
ATOM     58  OD2 ASP A  17       8.508  11.329  37.535  1.00  0.00    -0.246 OA
ATOM     59  N   ALA A  18      10.945   7.549  34.563  1.00  0.00    -0.196 N 
ATOM     60  CA  ALA A  18      10.111   6.381  34.834  1.00  0.00    +0.173 C 
ATOM     61  C   ALA A  18      10.798   5.431  35.801  1.00  0.00    +0.262 C 
ATOM     62  O   ALA A  18      11.998   5.185  35.690  1.00  0.00    -0.271 OA
ATOM     63  CB  ALA A  18       9.780   5.643  33.546  1.00  0.00    +0.033 C 
ATOM     64  N   ILE A  19      10.039   4.896  36.752  1.00  0.00    -0.196 N 
ATOM     65  CA  ILE A  19      10.468   3.714  37.494  1.00  0.00    +0.173 C 
ATOM     66  C   ILE A  19       9.588   2.530  37.129  1.00  0.00    +0.262 C 
ATOM     67  O   ILE A  19       8.363   2.645  37.110  1.00  0.00    -0.271 OA
ATOM     68  CB  ILE A  19      10.422   3.938  38.997  1.00  0.00    +0.029 C 
ATOM     69  CG1 ILE A  19      10.784   5.383  39.337  1.00  0.00    +0.002 C 
ATOM     70  CG2 ILE A  19      11.388   2.993  39.706  1.00  0.00    +0.002 C 
ATOM     71  CD1 ILE A  19      10.628   5.727  40.809  1.00  0.00    +0.000 C 
ATOM     72  N   ARG A  20      10.210   1.390  36.840  1.00  0.00    -0.196 N 
ATOM     73  CA  ARG A  20       9.827   0.133  37.476  1.00  0.00    +0.173 C 
ATOM     74  C   ARG A  20      10.187   0.138  38.952  1.00  0.00    +0.262 C 
ATOM     75  O   ARG A  20       9.517  -0.503  39.761  1.00  0.00    -0.271 OA
ATOM     76  CB  ARG A  20      10.500  -1.046  36.792  1.00  0.00    +0.033 C 
ATOM     77  CG  ARG A  20       9.992  -2.399  37.264  1.00  0.00    +0.029 C 
ATOM     78  CD  ARG A  20      10.861  -3.537  36.750  1.00  0.00    +0.129 C 
ATOM     79  NE  ARG A  20      10.056  -4.665  36.294  1.00  0.00    -0.234 NA
ATOM     80  CZ  ARG A  20      10.498  -5.915  36.176  1.00  0.00    +0.284 C 
ATOM     81  NH1 ARG A  20      11.727  -6.239  36.568  1.00  0.00    -0.104 N 
ATOM     82  NH2 ARG A  20       9.702  -6.848  35.661  1.00  0.00    -0.104 N 
ATOM     83  N   ARG A  21      11.246   0.859  39.306  1.00  0.00    -0.194 N 
ATOM     84  CA  ARG A  21      12.150   0.414  40.363  1.00  0.00    +0.198 C 
ATOM     85  C   ARG A  21      11.881   1.161  41.659  1.00  0.00    +0.384 C 
ATOM     86  O   ARG A  21      12.083   0.622  42.746  1.00  0.00    -0.244 OA
ATOM     87  CB  ARG A  21      13.601   0.612  39.956  1.00  0.00    +0.035 C 
ATOM     88  CG  ARG A  21      14.195  -0.572  39.209  1.00  0.00    +0.029 C 
ATOM     89  CD  ARG A  21      13.693  -0.642  37.775  1.00  0.00    +0.129 C 
ATOM     90  NE  ARG A  21      14.745  -1.070  36.857  1.00  0.00    -0.234 NA
ATOM     91  CZ  ARG A  21      16.011  -1.288  37.201  1.00  0.00    +0.284 C 
ATOM     92  NH1 ARG A  21      16.395  -1.185  38.471  1.00  0.00    -0.104 N 
ATOM     93  NH2 ARG A  21      16.900  -1.609  36.267  1.00  0.00    -0.104 N 
ATOM     94  OXT ARG A  21      11.458   2.317  41.639  1.00  0.00    -0.244 OA
ATOM     95  H   VAL A  10       2.843  23.178  35.714  1.00  0.00    +0.000 HD
ATOM     96  H   VAL A  10       1.722  23.713  34.604  1.00  0.00    +0.000 HD
ATOM     97  H   PHE A  11       4.663  20.511  33.905  1.00  0.00    +0.000 HD
ATOM     98  H   PHE A  12       8.052  22.710  31.007  1.00  0.00    +0.000 HD
ATOM     99  H   ALA A  13       9.956  22.230  35.701  1.00  0.00    +0.000 HD
ATOM    100  H   SER A  15       9.239  14.919  32.846  1.00  0.00    +0.000 HD
ATOM    101  H   SER A  15       9.615  12.829  32.346  1.00  0.00    +0.000 HD
ATOM    102  H   SER A  16      12.236  13.918  36.264  1.00  0.00    +0.000 HD
ATOM    103  H   SER A  16      12.585  12.706  37.786  1.00  0.00    +0.000 HD
ATOM    104  H   ASP A  17      11.004  11.594  35.019  1.00  0.00    +0.000 HD
ATOM    105  H   ASP A  17       8.152  10.602  38.008  1.00  0.00    +0.000 HD
ATOM    106  H   ALA A  18      11.863   7.419  34.233  1.00  0.00    +0.000 HD
ATOM    107  H   ILE A  19       9.168   5.306  36.962  1.00  0.00    +0.000 HD
ATOM    108  H   ARG A  20      10.944   1.395  36.184  1.00  0.00    +0.000 HD
ATOM    109  H   ARG A  20      12.319  -5.551  36.951  1.00  0.00    +0.000 HD
ATOM    110  H   ARG A  20      12.045  -7.166  36.477  1.00  0.00    +0.000 HD
ATOM    111  H   ARG A  20      10.023  -7.774  35.572  1.00  0.00    +0.000 HD
ATOM    112  H   ARG A  20       8.792  -6.612  35.368  1.00  0.00    +0.000 HD
ATOM    113  H   ARG A  21      11.425   1.711  38.846  1.00  0.00    +0.000 HD
ATOM    114  H   ARG A  21      12.405  -0.257  42.779  1.00  0.00    +0.000 HD
ATOM    115  H   ARG A  21      17.335  -1.348  38.715  1.00  0.00    +0.000 HD
ATOM    116  H   ARG A  21      15.740  -0.947  39.166  1.00  0.00    +0.000 HD
ATOM    117  H   ARG A  21      17.839  -1.771  36.515  1.00  0.00    +0.000 HD
ATOM    118  H   ARG A  21      16.619  -1.684  35.326  1.00  0.00    +0.000 HD
ENDROOT
TORSDOF 0
