REMARK  Name = /var/folders/yp/yjbh3p597675h2qddgqr02y00000gn/T/tmpc5s4s0wx.pdb
REMARK     285 UNITARY VALUES FOR THE UNIT CELL AUTOMATICALLY SET
REMARK     285 BY MDANALYSIS PDBWRITER BECAUSE UNIT CELL INFORMATION
REMARK     285 WAS MISSING.
REMARK     285 PROTEIN DATA BANK CONVENTIONS REQUIRE THAT
REMARK     285 CRYST1 RECORD IS INCLUDED, BUT THE VALUES ON
REMARK     285 THIS RECORD ARE MEANINGLESS.
REMARK     285 UNITARY VALUES FOR THE UNIT CELL AUTOMATICALLY SET
REMARK     285 BY MDANALYSIS PDBWRITER BECAUSE UNIT CELL INFORMATION
REMARK     285 WAS MISSING.
REMARK     285 PROTEIN DATA BANK CONVENTIONS REQUIRE THAT
REMARK     285 CRYST1 RECORD IS INCLUDED, BUT THE VALUES ON
REMARK     285 THIS RECORD ARE MEANINGLESS.
REMARK                            x       y       z     vdW  Elec       q    Type
REMARK                         _______ _______ _______ _____ _____    ______ ____
ROOT
ATOM      1  N   MET A   1      18.897  14.658  -4.535  1.00  0.00    -0.123 NA
ATOM      2  CA  MET A   1      19.632  15.872  -4.883  1.00  0.00    +0.170 C 
ATOM      3  C   MET A   1      20.809  15.553  -5.789  1.00  0.00    +0.259 C 
ATOM      4  O   MET A   1      21.414  14.487  -5.677  1.00  0.00    -0.272 OA
ATOM      5  CB  MET A   1      20.130  16.581  -3.635  1.00  0.00    +0.040 C 
ATOM      6  CG  MET A   1      19.036  16.865  -2.618  1.00  0.00    +0.060 C 
ATOM      7  SD  MET A   1      17.649  17.788  -3.324  1.00  0.00    -0.139 S 
ATOM      8  CE  MET A   1      18.384  19.410  -3.494  1.00  0.00    +0.069 C 
ATOM      9  N   LYS A   2      21.137  16.476  -6.689  1.00  0.00    -0.199 N 
ATOM     10  CA  LYS A   2      22.376  16.383  -7.455  1.00  0.00    +0.148 C 
ATOM     11  C   LYS A   2      23.589  16.563  -6.558  1.00  0.00    +0.259 C 
ATOM     12  O   LYS A   2      23.577  17.394  -5.651  1.00  0.00    -0.272 OA
ATOM     13  CB  LYS A   2      22.406  17.424  -8.564  1.00  0.00    +0.029 C 
ATOM     14  CG  LYS A   2      21.530  17.078  -9.757  1.00  0.00    +0.009 C 
ATOM     15  CD  LYS A   2      22.037  15.849 -10.491  1.00  0.00    +0.049 C 
ATOM     16  CE  LYS A   2      21.565  14.615  -9.869  1.00  0.00    +0.096 C 
ATOM     17  NZ  LYS A   2      22.162  13.432  -9.980  1.00  0.00    -0.151 NA
ATOM     18  N   GLN A   3      24.637  15.785  -6.809  1.00  0.00    -0.196 N 
ATOM     19  CA  GLN A   3      25.994  16.202  -6.465  1.00  0.00    +0.173 C 
ATOM     20  C   GLN A   3      26.904  16.159  -7.682  1.00  0.00    +0.262 C 
ATOM     21  O   GLN A   3      27.109  15.099  -8.271  1.00  0.00    -0.271 OA
ATOM     22  CB  GLN A   3      26.571  15.321  -5.369  1.00  0.00    +0.041 C 
ATOM     23  CG  GLN A   3      27.481  16.063  -4.403  1.00  0.00    +0.091 C 
ATOM     24  CD  GLN A   3      26.719  16.725  -3.268  1.00  0.00    +0.261 C 
ATOM     25  OE1 GLN A   3      25.518  16.483  -3.081  1.00  0.00    -0.272 OA
ATOM     26  NE2 GLN A   3      27.408  17.565  -2.501  1.00  0.00    -0.088 N 
ATOM     27  N   ALA A   4      27.452  17.310  -8.058  1.00  0.00    -0.196 N 
ATOM     28  CA  ALA A   4      26.885  18.592  -7.647  1.00  0.00    +0.173 C 
ATOM     29  C   ALA A   4      25.472  18.760  -8.179  1.00  0.00    +0.262 C 
ATOM     30  O   ALA A   4      25.146  18.271  -9.260  1.00  0.00    -0.271 OA
ATOM     31  CB  ALA A   4      27.749  19.744  -8.130  1.00  0.00    +0.033 C 
ATOM     32  N   VAL A   5      24.627  19.454  -7.421  1.00  0.00    -0.196 N 
ATOM     33  CA  VAL A   5      23.395  20.013  -7.970  1.00  0.00    +0.173 C 
ATOM     34  C   VAL A   5      23.500  21.529  -8.032  1.00  0.00    +0.262 C 
ATOM     35  O   VAL A   5      23.969  22.160  -7.087  1.00  0.00    -0.271 OA
ATOM     36  CB  VAL A   5      22.178  19.623  -7.146  1.00  0.00    +0.031 C 
ATOM     37  CG1 VAL A   5      21.016  20.576  -7.414  1.00  0.00    +0.002 C 
ATOM     38  CG2 VAL A   5      21.722  18.210  -7.508  1.00  0.00    +0.031 C 
ATOM     39  N   ASN A   6      23.065  22.111  -9.145  1.00  0.00    -0.196 N 
ATOM     40  CA  ASN A   6      22.486  23.452  -9.125  1.00  0.00    +0.182 C 
ATOM     41  C   ASN A   6      20.971  23.402  -9.013  1.00  0.00    +0.262 C 
ATOM     42  O   ASN A   6      20.335  22.495  -9.548  1.00  0.00    -0.271 OA
ATOM     43  CB  ASN A   6      22.878  24.233 -10.368  1.00  0.00    +0.120 C 
ATOM     44  CG  ASN A   6      21.747  24.329 -11.379  1.00  0.00    +0.263 C 
ATOM     45  OD1 ASN A   6      21.254  25.417 -11.672  1.00  0.00    -0.272 OA
ATOM     46  ND2 ASN A   6      21.332  23.184 -11.915  1.00  0.00    -0.088 N 
ATOM     47  N   ALA A   7      20.392  24.377  -8.318  1.00  0.00    -0.196 N 
ATOM     48  CA  ALA A   7      20.923  24.812  -7.030  1.00  0.00    +0.173 C 
ATOM     49  C   ALA A   7      20.860  23.691  -6.005  1.00  0.00    +0.262 C 
ATOM     50  O   ALA A   7      20.001  22.814  -6.094  1.00  0.00    -0.271 OA
ATOM     51  CB  ALA A   7      20.158  26.018  -6.509  1.00  0.00    +0.033 C 
ATOM     52  N   LEU A   8      21.768  23.718  -5.034  1.00  0.00    -0.196 N 
ATOM     53  CA  LEU A   8      21.551  23.019  -3.770  1.00  0.00    +0.173 C 
ATOM     54  C   LEU A   8      21.211  24.000  -2.660  1.00  0.00    +0.262 C 
ATOM     55  O   LEU A   8      21.623  25.159  -2.705  1.00  0.00    -0.271 OA
ATOM     56  CB  LEU A   8      22.782  22.218  -3.381  1.00  0.00    +0.031 C 
ATOM     57  CG  LEU A   8      22.889  20.813  -3.979  1.00  0.00    +0.002 C 
ATOM     58  CD1 LEU A   8      24.332  20.327  -3.933  1.00  0.00    +0.000 C 
ATOM     59  CD2 LEU A   8      22.708  20.860  -5.493  1.00  0.00    +0.000 C 
ATOM     60  N   LEU A   9      20.462  23.537  -1.665  1.00  0.00    -0.196 N 
ATOM     61  CA  LEU A   9      20.629  24.022  -0.297  1.00  0.00    +0.173 C 
ATOM     62  C   LEU A   9      21.933  23.521   0.299  1.00  0.00    +0.262 C 
ATOM     63  O   LEU A   9      22.189  22.317   0.322  1.00  0.00    -0.271 OA
ATOM     64  CB  LEU A   9      19.468  23.579   0.577  1.00  0.00    +0.031 C 
ATOM     65  CG  LEU A   9      18.127  24.268   0.315  1.00  0.00    +0.002 C 
ATOM     66  CD1 LEU A   9      17.199  24.089   1.510  1.00  0.00    +0.000 C 
ATOM     67  CD2 LEU A   9      17.321  23.493  -0.723  1.00  0.00    +0.000 C 
ATOM     68  N   VAL A  10      22.761  24.441   0.782  1.00  0.00    -0.196 N 
ATOM     69  CA  VAL A  10      23.394  24.285   2.089  1.00  0.00    +0.173 C 
ATOM     70  C   VAL A  10      22.905  25.373   3.031  1.00  0.00    +0.262 C 
ATOM     71  O   VAL A  10      23.103  26.558   2.773  1.00  0.00    -0.271 OA
ATOM     72  CB  VAL A  10      24.910  24.340   1.996  1.00  0.00    +0.033 C 
ATOM     73  CG1 VAL A  10      25.550  23.550   3.136  1.00  0.00    +0.029 C 
ATOM     74  CG2 VAL A  10      25.385  23.734   0.677  1.00  0.00    +0.003 C 
ATOM     75  N   PHE A  11      22.263  24.971   4.125  1.00  0.00    -0.196 N 
ATOM     76  CA  PHE A  11      22.802  25.222   5.457  1.00  0.00    +0.177 C 
ATOM     77  C   PHE A  11      23.778  24.128   5.859  1.00  0.00    +0.262 C 
ATOM     78  O   PHE A  11      23.705  23.009   5.354  1.00  0.00    -0.271 OA
ATOM     79  CB  PHE A  11      21.686  25.309   6.486  1.00  0.00    +0.057 C 
ATOM     80  CG  PHE A  11      22.161  25.640   7.869  1.00  0.00    -0.023 C 
ATOM     81  CD1 PHE A  11      22.879  24.702   8.602  1.00  0.00    -0.012 C 
ATOM     82  CE1 PHE A  11      23.319  25.010   9.883  1.00  0.00    +0.085 C 
ATOM     83  CD2 PHE A  11      21.886  26.888   8.418  1.00  0.00    -0.009 C 
ATOM     84  CE2 PHE A  11      22.327  27.196   9.700  1.00  0.00    -0.025 C 
ATOM     85  CZ  PHE A  11      23.044  26.258  10.432  1.00  0.00    +0.047 C 
ATOM     86  N   PHE A  12      24.693  24.450   6.769  1.00  0.00    -0.196 N 
ATOM     87  CA  PHE A  12      25.617  23.454   7.302  1.00  0.00    +0.176 C 
ATOM     88  C   PHE A  12      25.403  23.265   8.797  1.00  0.00    +0.246 C 
ATOM     89  O   PHE A  12      25.844  22.270   9.369  1.00  0.00    -0.273 OA
ATOM     90  CB  PHE A  12      27.060  23.859   7.044  1.00  0.00    +0.057 C 
ATOM     91  CG  PHE A  12      27.379  24.070   5.594  1.00  0.00    -0.020 A 
ATOM     92  CD1 PHE A  12      27.127  23.060   4.673  1.00  0.00    -0.008 A 
ATOM     93  CE1 PHE A  12      27.423  23.256   3.329  1.00  0.00    -0.022 A 
ATOM     94  CD2 PHE A  12      27.928  25.275   5.172  1.00  0.00    -0.004 A 
ATOM     95  CE2 PHE A  12      28.225  25.471   3.828  1.00  0.00    -0.001 A 
ATOM     96  CZ  PHE A  12      27.972  24.461   2.907  1.00  0.00    -0.004 A 
ATOM     97  N   ALA A  13      24.728  24.222   9.428  1.00  0.00    -0.271 N 
ATOM     98  CA  ALA A  13      24.744  24.329  10.883  1.00  0.00    +0.156 C 
ATOM     99  C   ALA A  13      24.077  23.123  11.528  1.00  0.00    +0.260 C 
ATOM    100  O   ALA A  13      24.238  22.887  12.725  1.00  0.00    -0.272 OA
ATOM    101  CB  ALA A  13      24.044  25.599  11.340  1.00  0.00    +0.054 C 
ATOM    102  N   GLY A  14      23.329  22.361  10.737  1.00  0.00    -0.194 N 
ATOM    103  CA  GLY A  14      21.933  22.075  11.054  1.00  0.00    +0.201 C 
ATOM    104  C   GLY A  14      21.617  20.604  10.834  1.00  0.00    +0.264 C 
ATOM    105  O   GLY A  14      22.517  19.802  10.584  1.00  0.00    -0.271 OA
ATOM    106  N   SER A  15      20.339  20.248  10.926  1.00  0.00    -0.194 N 
ATOM    107  CA  SER A  15      19.927  18.855  10.789  1.00  0.00    +0.205 C 
ATOM    108  C   SER A  15      19.209  18.619   9.470  1.00  0.00    +0.264 C 
ATOM    109  O   SER A  15      18.606  19.537   8.915  1.00  0.00    -0.271 OA
ATOM    110  CB  SER A  15      19.020  18.448  11.940  1.00  0.00    +0.213 C 
ATOM    111  OG  SER A  15      17.658  18.620  11.592  1.00  0.00    -0.218 OA
ATOM    112  N   SER A  16      19.273  17.389   8.968  1.00  0.00    -0.194 N 
ATOM    113  CA  SER A  16      20.285  16.437   9.416  1.00  0.00    +0.205 C 
ATOM    114  C   SER A  16      21.688  16.944   9.123  1.00  0.00    +0.264 C 
ATOM    115  O   SER A  16      21.955  17.445   8.033  1.00  0.00    -0.271 OA
ATOM    116  CB  SER A  16      20.083  15.087   8.747  1.00  0.00    +0.213 C 
ATOM    117  OG  SER A  16      18.939  15.105   7.911  1.00  0.00    -0.218 OA
ATOM    118  N   ASP A  17      22.584  16.814  10.097  1.00  0.00    -0.196 N 
ATOM    119  CA  ASP A  17      23.726  15.913   9.963  1.00  0.00    +0.184 C 
ATOM    120  C   ASP A  17      23.371  14.509  10.425  1.00  0.00    +0.262 C 
ATOM    121  O   ASP A  17      24.082  13.553  10.118  1.00  0.00    -0.271 OA
ATOM    122  CB  ASP A  17      24.915  16.423  10.759  1.00  0.00    +0.145 C 
ATOM    123  CG  ASP A  17      25.224  17.888  10.497  1.00  0.00    +0.367 C 
ATOM    124  OD1 ASP A  17      25.052  18.351   9.350  1.00  0.00    -0.246 OA
ATOM    125  OD2 ASP A  17      25.642  18.583  11.448  1.00  0.00    -0.246 OA
ATOM    126  N   ALA A  18      22.272  14.384  11.164  1.00  0.00    -0.196 N 
ATOM    127  CA  ALA A  18      22.290  13.675  12.439  1.00  0.00    +0.173 C 
ATOM    128  C   ALA A  18      21.281  12.540  12.450  1.00  0.00    +0.262 C 
ATOM    129  O   ALA A  18      20.075  12.776  12.409  1.00  0.00    -0.271 OA
ATOM    130  CB  ALA A  18      21.996  14.627  13.588  1.00  0.00    +0.033 C 
ATOM    131  N   ILE A  19      21.772  11.305  12.505  1.00  0.00    -0.196 N 
ATOM    132  CA  ILE A  19      20.896  10.138  12.509  1.00  0.00    +0.173 C 
ATOM    133  C   ILE A  19      21.108   9.342  13.786  1.00  0.00    +0.262 C 
ATOM    134  O   ILE A  19      22.243   9.155  14.225  1.00  0.00    -0.271 OA
ATOM    135  CB  ILE A  19      21.139   9.241  11.306  1.00  0.00    +0.029 C 
ATOM    136  CG1 ILE A  19      21.325  10.075  10.040  1.00  0.00    +0.002 C 
ATOM    137  CG2 ILE A  19      19.969   8.280  11.113  1.00  0.00    +0.002 C 
ATOM    138  CD1 ILE A  19      21.528   9.248   8.781  1.00  0.00    +0.000 C 
ATOM    139  N   ARG A  20      20.017   8.873  14.385  1.00  0.00    -0.196 N 
ATOM    140  CA  ARG A  20      18.921   9.757  14.768  1.00  0.00    +0.173 C 
ATOM    141  C   ARG A  20      19.341  10.689  15.894  1.00  0.00    +0.262 C 
ATOM    142  O   ARG A  20      18.842  11.808  15.996  1.00  0.00    -0.271 OA
ATOM    143  CB  ARG A  20      17.704   8.956  15.201  1.00  0.00    +0.033 C 
ATOM    144  CG  ARG A  20      16.514   9.813  15.601  1.00  0.00    +0.029 C 
ATOM    145  CD  ARG A  20      15.207   9.043  15.512  1.00  0.00    +0.129 C 
ATOM    146  NE  ARG A  20      14.051   9.936  15.532  1.00  0.00    -0.234 NA
ATOM    147  CZ  ARG A  20      13.479  10.410  16.635  1.00  0.00    +0.284 C 
ATOM    148  NH1 ARG A  20      13.970  10.115  17.835  1.00  0.00    -0.104 N 
ATOM    149  NH2 ARG A  20      12.404  11.187  16.535  1.00  0.00    -0.104 N 
ATOM    150  N   ARG A  21      20.259  10.228  16.739  1.00  0.00    -0.194 N 
ATOM    151  CA  ARG A  21      19.945   9.983  18.144  1.00  0.00    +0.198 C 
ATOM    152  C   ARG A  21      20.499  11.088  19.026  1.00  0.00    +0.384 C 
ATOM    153  O   ARG A  21      21.508  11.707  18.694  1.00  0.00    -0.244 OA
ATOM    154  CB  ARG A  21      20.502   8.643  18.598  1.00  0.00    +0.035 C 
ATOM    155  CG  ARG A  21      20.363   7.537  17.564  1.00  0.00    +0.029 C 
ATOM    156  CD  ARG A  21      18.906   7.198  17.293  1.00  0.00    +0.129 C 
ATOM    157  NE  ARG A  21      18.776   6.140  16.296  1.00  0.00    -0.234 NA
ATOM    158  CZ  ARG A  21      17.619   5.667  15.839  1.00  0.00    +0.284 C 
ATOM    159  NH1 ARG A  21      16.533   6.433  15.824  1.00  0.00    -0.104 N 
ATOM    160  NH2 ARG A  21      17.551   4.417  15.391  1.00  0.00    -0.104 N 
ATOM    161  OXT ARG A  21      19.945  11.378  20.086  1.00  0.00    -0.244 OA
ATOM    162  H   MET A   1      18.113  14.898  -3.927  1.00  0.00    +0.000 HD
ATOM    163  H   MET A   1      19.518  14.012  -4.049  1.00  0.00    +0.000 HD
ATOM    164  H   LYS A   2      20.531  17.238  -6.842  1.00  0.00    +0.000 HD
ATOM    165  H   LYS A   2      22.985  13.345 -10.512  1.00  0.00    +0.000 HD
ATOM    166  H   GLN A   3      24.496  14.909  -7.236  1.00  0.00    +0.000 HD
ATOM    167  H   GLN A   3      26.965  18.023  -1.750  1.00  0.00    +0.000 HD
ATOM    168  H   GLN A   3      28.361  17.730  -2.683  1.00  0.00    +0.000 HD
ATOM    169  H   ALA A   4      28.255  17.298  -8.627  1.00  0.00    +0.000 HD
ATOM    170  H   VAL A   5      24.836  19.593  -6.469  1.00  0.00    +0.000 HD
ATOM    171  H   ASN A   6      23.135  21.630 -10.001  1.00  0.00    +0.000 HD
ATOM    172  H   ASN A   6      20.602  23.186 -12.575  1.00  0.00    +0.000 HD
ATOM    173  H   ASN A   6      21.755  22.335 -11.652  1.00  0.00    +0.000 HD
ATOM    174  H   ALA A   7      19.588  24.814  -8.680  1.00  0.00    +0.000 HD
ATOM    175  H   LEU A   8      22.603  24.220  -5.170  1.00  0.00    +0.000 HD
ATOM    176  H   LEU A   9      19.779  22.854  -1.854  1.00  0.00    +0.000 HD
ATOM    177  H   VAL A  10      22.952  25.246   0.248  1.00  0.00    +0.000 HD
ATOM    178  H   PHE A  11      21.406  24.493   4.033  1.00  0.00    +0.000 HD
ATOM    179  H   PHE A  12      24.748  25.379   7.090  1.00  0.00    +0.000 HD
ATOM    180  H   GLY A  14      23.725  21.981   9.919  1.00  0.00    +0.000 HD
ATOM    181  H   SER A  15      19.657  20.939  11.091  1.00  0.00    +0.000 HD
ATOM    182  H   SER A  15      17.447  18.064  10.826  1.00  0.00    +0.000 HD
ATOM    183  H   SER A  16      18.625  17.115   8.280  1.00  0.00    +0.000 HD
ATOM    184  H   SER A  16      18.153  15.302   8.444  1.00  0.00    +0.000 HD
ATOM    185  H   ASP A  17      22.475  17.335  10.926  1.00  0.00    +0.000 HD
ATOM    186  H   ASP A  17      24.737  17.797   8.663  1.00  0.00    +0.000 HD
ATOM    187  H   ALA A  18      21.429  14.777  10.843  1.00  0.00    +0.000 HD
ATOM    188  H   ILE A  19      22.747  11.175  12.543  1.00  0.00    +0.000 HD
ATOM    189  H   ARG A  20      19.948   7.908  14.573  1.00  0.00    +0.000 HD
ATOM    190  H   ARG A  20      13.538  10.471  18.645  1.00  0.00    +0.000 HD
ATOM    191  H   ARG A  20      14.765   9.539  17.914  1.00  0.00    +0.000 HD
ATOM    192  H   ARG A  20      11.976  11.542  17.347  1.00  0.00    +0.000 HD
ATOM    193  H   ARG A  20      12.037  11.408  15.648  1.00  0.00    +0.000 HD
ATOM    194  H   ARG A  21      21.169  10.049  16.410  1.00  0.00    +0.000 HD
ATOM    195  H   ARG A  21      21.942  11.499  17.890  1.00  0.00    +0.000 HD
ATOM    196  H   ARG A  21      16.578   7.360  16.154  1.00  0.00    +0.000 HD
ATOM    197  H   ARG A  21      15.682   6.074  15.482  1.00  0.00    +0.000 HD
ATOM    198  H   ARG A  21      16.699   4.062  15.051  1.00  0.00    +0.000 HD
ATOM    199  H   ARG A  21      18.354   3.847  15.400  1.00  0.00    +0.000 HD
ENDROOT
TORSDOF 0
