REMARK  Name = /var/folders/yp/yjbh3p597675h2qddgqr02y00000gn/T/tmpvtopk8it.pdb
REMARK     285 UNITARY VALUES FOR THE UNIT CELL AUTOMATICALLY SET
REMARK     285 BY MDANALYSIS PDBWRITER BECAUSE UNIT CELL INFORMATION
REMARK     285 WAS MISSING.
REMARK     285 PROTEIN DATA BANK CONVENTIONS REQUIRE THAT
REMARK     285 CRYST1 RECORD IS INCLUDED, BUT THE VALUES ON
REMARK     285 THIS RECORD ARE MEANINGLESS.
REMARK     285 UNITARY VALUES FOR THE UNIT CELL AUTOMATICALLY SET
REMARK     285 BY MDANALYSIS PDBWRITER BECAUSE UNIT CELL INFORMATION
REMARK     285 WAS MISSING.
REMARK     285 PROTEIN DATA BANK CONVENTIONS REQUIRE THAT
REMARK     285 CRYST1 RECORD IS INCLUDED, BUT THE VALUES ON
REMARK     285 THIS RECORD ARE MEANINGLESS.
REMARK                            x       y       z     vdW  Elec       q    Type
REMARK                         _______ _______ _______ _____ _____    ______ ____
REMARK  Name = /var/folders/yp/yjbh3p597675h2qddgqr02y00000gn/T/tmpvtopk8it.pdb
REMARK     285 UNITARY VALUES FOR THE UNIT CELL AUTOMATICALLY SET
REMARK     285 BY MDANALYSIS PDBWRITER BECAUSE UNIT CELL INFORMATION
REMARK     285 WAS MISSING.
REMARK     285 PROTEIN DATA BANK CONVENTIONS REQUIRE THAT
REMARK     285 CRYST1 RECORD IS INCLUDED, BUT THE VALUES ON
REMARK     285 THIS RECORD ARE MEANINGLESS.
REMARK     285 UNITARY VALUES FOR THE UNIT CELL AUTOMATICALLY SET
REMARK     285 BY MDANALYSIS PDBWRITER BECAUSE UNIT CELL INFORMATION
REMARK     285 WAS MISSING.
REMARK     285 PROTEIN DATA BANK CONVENTIONS REQUIRE THAT
REMARK     285 CRYST1 RECORD IS INCLUDED, BUT THE VALUES ON
REMARK     285 THIS RECORD ARE MEANINGLESS.
REMARK                            x       y       z     vdW  Elec       q    Type
REMARK                         _______ _______ _______ _____ _____    ______ ____
ROOT
ATOM      1  N   MET A   1       8.629  21.811   0.783  1.00  0.00    -0.123 NA
ATOM      2  CA  MET A   1       8.708  20.630   1.639  1.00  0.00    +0.170 C 
ATOM      3  C   MET A   1       9.291  19.448   0.882  1.00  0.00    +0.259 C 
ATOM      4  O   MET A   1       9.038  19.284  -0.310  1.00  0.00    -0.272 OA
ATOM      5  CB  MET A   1       7.336  20.260   2.180  1.00  0.00    +0.040 C 
ATOM      6  CG  MET A   1       7.328  18.978   2.996  1.00  0.00    +0.060 C 
ATOM      7  SD  MET A   1       8.041  19.196   4.646  1.00  0.00    -0.139 S 
ATOM      8  CE  MET A   1       9.476  20.192   4.255  1.00  0.00    +0.069 C 
ATOM      9  N   LYS A   2      10.071  18.623   1.574  1.00  0.00    -0.197 N 
ATOM     10  CA  LYS A   2      10.840  17.572   0.915  1.00  0.00    +0.173 C 
ATOM     11  C   LYS A   2      10.108  16.240   0.973  1.00  0.00    +0.262 C 
ATOM     12  O   LYS A   2       9.248  16.038   1.830  1.00  0.00    -0.271 OA
ATOM     13  CB  LYS A   2      12.212  17.424   1.552  1.00  0.00    +0.031 C 
ATOM     14  CG  LYS A   2      13.203  18.499   1.133  1.00  0.00    +0.009 C 
ATOM     15  CD  LYS A   2      12.671  19.895   1.409  1.00  0.00    +0.049 C 
ATOM     16  CE  LYS A   2      11.562  20.235   0.521  1.00  0.00    +0.096 C 
ATOM     17  NZ  LYS A   2      10.738  21.264   0.697  1.00  0.00    -0.151 NA
ATOM     18  N   GLN A   3      10.448  15.332   0.064  1.00  0.00    -0.195 N 
ATOM     19  CA  GLN A   3      10.115  13.921   0.236  1.00  0.00    +0.192 C 
ATOM     20  C   GLN A   3      11.297  13.034  -0.119  1.00  0.00    +0.263 C 
ATOM     21  O   GLN A   3      11.832  13.120  -1.223  1.00  0.00    -0.271 OA
ATOM     22  CB  GLN A   3       8.917  13.538  -0.616  1.00  0.00    +0.124 C 
ATOM     23  CG  GLN A   3       8.412  12.127  -0.365  1.00  0.00    +0.026 C 
ATOM     24  CD  GLN A   3       7.511  11.617  -1.479  1.00  0.00    +0.231 C 
ATOM     25  OE1 GLN A   3       7.155  12.366  -2.402  1.00  0.00    -0.326 OA
ATOM     26  NE2 GLN A   3       7.136  10.344  -1.403  1.00  0.00    -0.155 NA
ATOM     27  N   ALA A   4      11.706  12.183   0.817  1.00  0.00    -0.196 N 
ATOM     28  CA  ALA A   4      11.931  10.772   0.515  1.00  0.00    +0.173 C 
ATOM     29  C   ALA A   4      10.618  10.055   0.243  1.00  0.00    +0.262 C 
ATOM     30  O   ALA A   4      10.584   9.067  -0.488  1.00  0.00    -0.271 OA
ATOM     31  CB  ALA A   4      12.657  10.084   1.660  1.00  0.00    +0.033 C 
ATOM     32  N   VAL A   5       9.534  10.553   0.832  1.00  0.00    -0.196 N 
ATOM     33  CA  VAL A   5       8.394   9.705   1.166  1.00  0.00    +0.174 C 
ATOM     34  C   VAL A   5       7.649   9.322  -0.102  1.00  0.00    +0.276 C 
ATOM     35  O   VAL A   5       7.284   8.162  -0.285  1.00  0.00    -0.270 OA
ATOM     36  CB  VAL A   5       7.438  10.392   2.127  1.00  0.00    +0.029 C 
ATOM     37  CG1 VAL A   5       8.203  11.036   3.282  1.00  0.00    +0.002 C 
ATOM     38  CG2 VAL A   5       6.657  11.489   1.409  1.00  0.00    +0.002 C 
ATOM     39  N   ASN A   6       7.423  10.296  -0.978  1.00  0.00    -0.124 N 
ATOM     40  CA  ASN A   6       6.174  11.052  -0.972  1.00  0.00    +0.116 C 
ATOM     41  CB  ASN A   6       6.354  12.409  -1.629  1.00  0.00    +0.238 C 
ATOM     42  CG  ASN A   6       6.407  13.545  -0.620  1.00  0.00    +0.273 C 
ATOM     43  OD1 ASN A   6       5.457  13.767   0.129  1.00  0.00    -0.271 OA
ATOM     44  ND2 ASN A   6       7.522  14.270  -0.602  1.00  0.00    -0.203 N 
ATOM     45  H   MET A   1       9.559  22.040   0.433  1.00  0.00    +0.000 HD
ATOM     46  H   MET A   1       8.266  22.597   1.321  1.00  0.00    +0.000 HD
ATOM     47  H   LYS A   2      10.131  18.723   2.552  1.00  0.00    +0.000 HD
ATOM     48  H   LYS A   2      10.854  21.861   1.471  1.00  0.00    +0.000 HD
ATOM     49  H   GLN A   3      10.935  15.617  -0.743  1.00  0.00    +0.000 HD
ATOM     50  H   ALA A   4      11.860  12.511   1.732  1.00  0.00    +0.000 HD
ATOM     51  H   VAL A   5       9.500  11.513   1.047  1.00  0.00    +0.000 HD
ATOM     52  H   ASN A   6       7.921  11.118  -0.764  1.00  0.00    +0.000 HD
ATOM     53  H   ASN A   6       7.476  15.253  -0.580  1.00  0.00    +0.000 HD
ATOM      1  C   ASN A   6       5.059  10.292  -1.673  1.00  0.00    +0.321 C 
ATOM      2  O   ASN A   6       3.886  10.452  -1.337  1.00  0.00    -0.263 OA
ATOM      3  N   ALA A   7       5.424   9.465  -2.648  1.00  0.00    -0.190 N 
ATOM      4  CA  ALA A   7       4.446   8.904  -3.576  1.00  0.00    +0.173 C 
ATOM      5  C   ALA A   7       3.415   8.061  -2.840  1.00  0.00    +0.262 C 
ATOM      6  O   ALA A   7       3.772   7.160  -2.083  1.00  0.00    -0.271 OA
ATOM      7  CB  ALA A   7       5.130   8.057  -4.637  1.00  0.00    +0.033 C 
ATOM      8  N   LEU A   8       2.137   8.356  -3.062  1.00  0.00    -0.196 N 
ATOM      9  CA  LEU A   8       1.096   7.337  -2.967  1.00  0.00    +0.173 C 
ATOM     10  C   LEU A   8       0.591   6.948  -4.347  1.00  0.00    +0.262 C 
ATOM     11  O   LEU A   8       0.540   7.780  -5.251  1.00  0.00    -0.271 OA
ATOM     12  CB  LEU A   8      -0.067   7.832  -2.123  1.00  0.00    +0.031 C 
ATOM     13  CG  LEU A   8       0.280   8.295  -0.706  1.00  0.00    +0.002 C 
ATOM     14  CD1 LEU A   8      -0.978   8.351   0.154  1.00  0.00    +0.000 C 
ATOM     15  CD2 LEU A   8       0.633   9.778  -0.698  1.00  0.00    +0.000 C 
ATOM     16  N   LEU A   9       0.217   5.681  -4.511  1.00  0.00    -0.196 N 
ATOM     17  CA  LEU A   9       1.057   4.576  -4.060  1.00  0.00    +0.173 C 
ATOM     18  C   LEU A   9       1.021   3.428  -5.056  1.00  0.00    +0.262 C 
ATOM     19  O   LEU A   9      -0.050   3.000  -5.479  1.00  0.00    -0.271 OA
ATOM     20  CB  LEU A   9       0.608   4.079  -2.696  1.00  0.00    +0.031 C 
ATOM     21  CG  LEU A   9       1.455   2.968  -2.072  1.00  0.00    +0.002 C 
ATOM     22  CD1 LEU A   9       0.853   2.528  -0.742  1.00  0.00    +0.000 C 
ATOM     23  CD2 LEU A   9       2.775   3.527  -1.555  1.00  0.00    +0.000 C 
ATOM     24  N   VAL A  10       2.196   2.928  -5.430  1.00  0.00    -0.196 N 
ATOM     25  CA  VAL A  10       2.283   1.705  -6.225  1.00  0.00    +0.173 C 
ATOM     26  C   VAL A  10       3.102   0.665  -5.478  1.00  0.00    +0.262 C 
ATOM     27  O   VAL A  10       4.220   0.942  -5.048  1.00  0.00    -0.271 OA
ATOM     28  CB  VAL A  10       2.904   1.958  -7.588  1.00  0.00    +0.029 C 
ATOM     29  CG1 VAL A  10       2.406   0.935  -8.606  1.00  0.00    +0.002 C 
ATOM     30  CG2 VAL A  10       2.529   3.349  -8.096  1.00  0.00    +0.002 C 
ATOM     31  N   PHE A  11       2.546  -0.533  -5.323  1.00  0.00    -0.196 N 
ATOM     32  CA  PHE A  11       3.301  -1.759  -5.568  1.00  0.00    +0.177 C 
ATOM     33  C   PHE A  11       3.254  -2.135  -7.040  1.00  0.00    +0.262 C 
ATOM     34  O   PHE A  11       2.177  -2.335  -7.600  1.00  0.00    -0.271 OA
ATOM     35  CB  PHE A  11       2.758  -2.906  -4.732  1.00  0.00    +0.057 C 
ATOM     36  CG  PHE A  11       3.646  -4.115  -4.711  1.00  0.00    -0.020 A 
ATOM     37  CD1 PHE A  11       4.539  -4.340  -5.752  1.00  0.00    -0.004 A 
ATOM     38  CE1 PHE A  11       5.361  -5.461  -5.732  1.00  0.00    -0.000 A 
ATOM     39  CD2 PHE A  11       3.575  -5.011  -3.650  1.00  0.00    -0.004 A 
ATOM     40  CE2 PHE A  11       4.397  -6.131  -3.630  1.00  0.00    -0.000 A 
ATOM     41  CZ  PHE A  11       5.290  -6.356  -4.671  1.00  0.00    -0.000 A 
ATOM     42  N   PHE A  12       4.422  -2.231  -7.668  1.00  0.00    -0.196 N 
ATOM     43  CA  PHE A  12       4.496  -2.529  -9.096  1.00  0.00    +0.177 C 
ATOM     44  C   PHE A  12       4.390  -4.026  -9.339  1.00  0.00    +0.262 C 
ATOM     45  O   PHE A  12       3.530  -4.476 -10.094  1.00  0.00    -0.271 OA
ATOM     46  CB  PHE A  12       5.792  -2.007  -9.693  1.00  0.00    +0.057 C 
ATOM     47  CG  PHE A  12       5.963  -0.523  -9.569  1.00  0.00    -0.020 A 
ATOM     48  CD1 PHE A  12       5.107   0.336 -10.249  1.00  0.00    -0.004 A 
ATOM     49  CE1 PHE A  12       5.266   1.712 -10.135  1.00  0.00    -0.000 A 
ATOM     50  CD2 PHE A  12       6.979  -0.004  -8.775  1.00  0.00    -0.004 A 
ATOM     51  CE2 PHE A  12       7.139   1.372  -8.659  1.00  0.00    -0.000 A 
ATOM     52  CZ  PHE A  12       6.282   2.230  -9.340  1.00  0.00    -0.000 A 
ATOM     53  N   ALA A  13       5.266  -4.797  -8.701  1.00  0.00    -0.196 N 
ATOM     54  CA  ALA A  13       6.407  -5.386  -9.395  1.00  0.00    +0.173 C 
ATOM     55  C   ALA A  13       5.952  -6.400 -10.432  1.00  0.00    +0.262 C 
ATOM     56  O   ALA A  13       6.563  -6.526 -11.492  1.00  0.00    -0.271 OA
ATOM     57  CB  ALA A  13       7.351  -6.056  -8.410  1.00  0.00    +0.033 C 
ATOM     58  N   GLY A  14       4.878  -7.123 -10.128  1.00  0.00    -0.194 N 
ATOM     59  CA  GLY A  14       4.906  -8.111  -9.053  1.00  0.00    +0.201 C 
ATOM     60  C   GLY A  14       5.635  -9.371  -9.492  1.00  0.00    +0.264 C 
ATOM     61  O   GLY A  14       6.158  -9.434 -10.603  1.00  0.00    -0.271 OA
ATOM     62  N   SER A  15       5.670 -10.374  -8.619  1.00  0.00    -0.194 N 
ATOM     63  CA  SER A  15       5.921 -11.746  -9.048  1.00  0.00    +0.205 C 
ATOM     64  C   SER A  15       4.854 -12.224 -10.021  1.00  0.00    +0.264 C 
ATOM     65  O   SER A  15       3.685 -11.861  -9.891  1.00  0.00    -0.271 OA
ATOM     66  CB  SER A  15       5.971 -12.681  -7.851  1.00  0.00    +0.213 C 
ATOM     67  OG  SER A  15       4.664 -13.001  -7.407  1.00  0.00    -0.218 OA
ATOM     68  N   SER A  16       5.254 -13.035 -10.995  1.00  0.00    -0.194 N 
ATOM     69  CA  SER A  16       6.614 -12.975 -11.522  1.00  0.00    +0.205 C 
ATOM     70  C   SER A  16       6.965 -11.571 -11.987  1.00  0.00    +0.264 C 
ATOM     71  O   SER A  16       6.092 -10.825 -12.429  1.00  0.00    -0.271 OA
ATOM     72  CB  SER A  16       6.784 -13.949 -12.677  1.00  0.00    +0.213 C 
ATOM     73  OG  SER A  16       7.012 -15.263 -12.198  1.00  0.00    -0.218 OA
ATOM     74  N   ASP A  17       8.240 -11.210 -11.887  1.00  0.00    -0.196 N 
ATOM     75  CA  ASP A  17       9.205 -11.528 -12.935  1.00  0.00    +0.184 C 
ATOM     76  C   ASP A  17       9.652 -12.978 -12.842  1.00  0.00    +0.262 C 
ATOM     77  O   ASP A  17       9.823 -13.645 -13.862  1.00  0.00    -0.271 OA
ATOM     78  CB  ASP A  17      10.418 -10.617 -12.850  1.00  0.00    +0.145 C 
ATOM     79  CG  ASP A  17      10.114  -9.182 -13.251  1.00  0.00    +0.367 C 
ATOM     80  OD1 ASP A  17       8.923  -8.823 -13.379  1.00  0.00    -0.246 OA
ATOM     81  OD2 ASP A  17      11.075  -8.405 -13.441  1.00  0.00    -0.246 OA
ATOM     82  N   ALA A  18       9.845 -13.467 -11.620  1.00  0.00    -0.196 N 
ATOM     83  CA  ALA A  18      11.140 -13.367 -10.957  1.00  0.00    +0.173 C 
ATOM     84  C   ALA A  18      11.604 -14.725 -10.456  1.00  0.00    +0.262 C 
ATOM     85  O   ALA A  18      10.785 -15.599 -10.172  1.00  0.00    -0.271 OA
ATOM     86  CB  ALA A  18      11.076 -12.393  -9.791  1.00  0.00    +0.033 C 
ATOM     87  N   ILE A  19      12.917 -14.905 -10.347  1.00  0.00    -0.196 N 
ATOM     88  CA  ILE A  19      13.470 -16.041  -9.616  1.00  0.00    +0.173 C 
ATOM     89  C   ILE A  19      14.316 -15.543  -8.456  1.00  0.00    +0.262 C 
ATOM     90  O   ILE A  19      15.186 -14.692  -8.636  1.00  0.00    -0.271 OA
ATOM     91  CB  ILE A  19      14.312 -16.937 -10.510  1.00  0.00    +0.029 C 
ATOM     92  CG1 ILE A  19      13.516 -17.374 -11.738  1.00  0.00    +0.002 C 
ATOM     93  CG2 ILE A  19      14.775 -18.172  -9.740  1.00  0.00    +0.002 C 
ATOM     94  CD1 ILE A  19      14.245 -18.375 -12.621  1.00  0.00    +0.000 C 
ATOM     95  N   ARG A  20      14.062 -16.072  -7.262  1.00  0.00    -0.196 N 
ATOM     96  CA  ARG A  20      15.137 -16.544  -6.396  1.00  0.00    +0.173 C 
ATOM     97  C   ARG A  20      15.957 -17.623  -7.083  1.00  0.00    +0.262 C 
ATOM     98  O   ARG A  20      17.158 -17.457  -7.293  1.00  0.00    -0.271 OA
ATOM     99  CB  ARG A  20      14.583 -17.085  -5.088  1.00  0.00    +0.033 C 
ATOM    100  CG  ARG A  20      15.636 -17.708  -4.186  1.00  0.00    +0.029 C 
ATOM    101  CD  ARG A  20      17.025 -17.162  -4.479  1.00  0.00    +0.129 C 
ATOM    102  NE  ARG A  20      18.067 -17.980  -3.867  1.00  0.00    -0.234 NA
ATOM    103  CZ  ARG A  20      18.603 -17.756  -2.671  1.00  0.00    +0.284 C 
ATOM    104  NH1 ARG A  20      18.540 -16.550  -2.116  1.00  0.00    -0.104 N 
ATOM    105  NH2 ARG A  20      19.207 -18.750  -2.025  1.00  0.00    -0.104 N 
ATOM    106  N   ARG A  21      15.310 -18.730  -7.436  1.00  0.00    -0.194 N 
ATOM    107  CA  ARG A  21      15.483 -19.979  -6.700  1.00  0.00    +0.198 C 
ATOM    108  C   ARG A  21      16.506 -20.875  -7.381  1.00  0.00    +0.384 C 
ATOM    109  O   ARG A  21      17.680 -20.874  -7.014  1.00  0.00    -0.244 OA
ATOM    110  CB  ARG A  21      14.162 -20.721  -6.574  1.00  0.00    +0.035 C 
ATOM    111  CG  ARG A  21      13.792 -21.077  -5.144  1.00  0.00    +0.029 C 
ATOM    112  CD  ARG A  21      14.382 -22.414  -4.724  1.00  0.00    +0.129 C 
ATOM    113  NE  ARG A  21      13.641 -23.005  -3.612  1.00  0.00    -0.234 NA
ATOM    114  CZ  ARG A  21      13.925 -22.817  -2.327  1.00  0.00    +0.284 C 
ATOM    115  NH1 ARG A  21      14.949 -22.051  -1.962  1.00  0.00    -0.104 N 
ATOM    116  NH2 ARG A  21      13.176 -23.402  -1.396  1.00  0.00    -0.104 N 
ATOM    117  OXT ARG A  21      16.172 -21.613  -8.307  1.00  0.00    -0.244 OA
ATOM    118  H   ALA A   7       6.374   9.226  -2.746  1.00  0.00    +0.000 HD
ATOM    119  H   LEU A   8       1.888   9.280  -3.295  1.00  0.00    +0.000 HD
ATOM    120  H   LEU A   9      -0.644   5.485  -4.946  1.00  0.00    +0.000 HD
ATOM    121  H   VAL A  10       3.023   3.391  -5.166  1.00  0.00    +0.000 HD
ATOM    122  H   PHE A  11       1.606  -0.595  -5.037  1.00  0.00    +0.000 HD
ATOM    123  H   PHE A  12       5.255  -2.098  -7.160  1.00  0.00    +0.000 HD
ATOM    124  H   ALA A  13       5.142  -4.974  -7.741  1.00  0.00    +0.000 HD
ATOM    125  H   GLY A  14       4.047  -6.989 -10.638  1.00  0.00    +0.000 HD
ATOM    126  H   SER A  15       5.524 -10.187  -7.664  1.00  0.00    +0.000 HD
ATOM    127  H   SER A  15       4.205 -12.189  -7.140  1.00  0.00    +0.000 HD
ATOM    128  H   SER A  16       4.620 -13.689 -11.369  1.00  0.00    +0.000 HD
ATOM    129  H   SER A  16       6.253 -15.550 -11.667  1.00  0.00    +0.000 HD
ATOM    130  H   ASP A  17       8.540 -10.718 -11.089  1.00  0.00    +0.000 HD
ATOM    131  H   ASP A  17       8.230  -9.435 -13.228  1.00  0.00    +0.000 HD
ATOM    132  H   ALA A  18       9.097 -13.906 -11.153  1.00  0.00    +0.000 HD
ATOM    133  H   ILE A  19      13.529 -14.259 -10.768  1.00  0.00    +0.000 HD
ATOM    134  H   ARG A  20      13.129 -16.146  -6.956  1.00  0.00    +0.000 HD
ATOM    135  H   ARG A  20      18.094 -15.812  -2.591  1.00  0.00    +0.000 HD
ATOM    136  H   ARG A  20      18.939 -16.395  -1.230  1.00  0.00    +0.000 HD
ATOM    137  H   ARG A  20      19.256 -19.645  -2.433  1.00  0.00    +0.000 HD
ATOM    138  H   ARG A  20      19.605 -18.591  -1.139  1.00  0.00    +0.000 HD
ATOM    139  H   ARG A  21      14.702 -18.707  -8.210  1.00  0.00    +0.000 HD
ATOM    140  H   ARG A  21      17.950 -20.318  -6.310  1.00  0.00    +0.000 HD
ATOM    141  H   ARG A  21      15.507 -21.616  -2.647  1.00  0.00    +0.000 HD
ATOM    142  H   ARG A  21      15.149 -21.919  -1.007  1.00  0.00    +0.000 HD
ATOM    143  H   ARG A  21      12.417 -23.970  -1.660  1.00  0.00    +0.000 HD
ATOM    144  H   ARG A  21      13.381 -23.267  -0.443  1.00  0.00    +0.000 HD
ENDROOT
TORSDOF 0
