REMARK  Name = /var/folders/yp/yjbh3p597675h2qddgqr02y00000gn/T/tmp05259vfu.pdb
REMARK   1 CREATED WITH OPENMM 8.6.1, 2026-10-07
REMARK                            x       y       z     vdW  Elec       q    Type
REMARK                         _______ _______ _______ _____ _____    ______ ____
ROOT
ATOM      1  N   MET A   1      19.063  25.145   8.602  1.00  0.00    -0.123 NA
ATOM      2  CA  MET A   1      17.832  25.242   9.414  1.00  0.00    +0.170 C 
ATOM      3  C   MET A   1      16.760  24.317   8.876  1.00  0.00    +0.259 C 
ATOM      4  O   MET A   1      16.653  24.121   7.663  1.00  0.00    -0.272 OA
ATOM      5  CB  MET A   1      17.279  26.676   9.488  1.00  0.00    +0.040 C 
ATOM      6  CG  MET A   1      18.048  27.528  10.496  1.00  0.00    +0.060 C 
ATOM      7  SD  MET A   1      18.314  26.691  12.087  1.00  0.00    -0.139 S 
ATOM      8  CE  MET A   1      17.271  27.687  13.177  1.00  0.00    +0.069 C 
ATOM      9  N   LYS A   2      15.956  23.737   9.769  1.00  0.00    -0.197 N 
ATOM     10  CA  LYS A   2      14.883  22.822   9.353  1.00  0.00    +0.173 C 
ATOM     11  C   LYS A   2      13.774  23.569   8.622  1.00  0.00    +0.262 C 
ATOM     12  O   LYS A   2      13.622  24.787   8.746  1.00  0.00    -0.271 OA
ATOM     13  CB  LYS A   2      14.282  22.115  10.557  1.00  0.00    +0.031 C 
ATOM     14  CG  LYS A   2      15.270  21.191  11.281  1.00  0.00    +0.004 C 
ATOM     15  CD  LYS A   2      14.661  20.617  12.560  1.00  0.00    +0.021 C 
ATOM     16  CE  LYS A   2      14.518  21.655  13.677  1.00  0.00    +0.109 C 
ATOM     17  NZ  LYS A   2      13.474  22.683  13.490  1.00  0.00    -0.131 NA
ATOM     18  N   GLN A   3      12.944  22.812   7.920  1.00  0.00    -0.196 N 
ATOM     19  CA  GLN A   3      11.637  23.293   7.499  1.00  0.00    +0.173 C 
ATOM     20  C   GLN A   3      10.706  23.463   8.705  1.00  0.00    +0.262 C 
ATOM     21  O   GLN A   3      10.354  22.490   9.372  1.00  0.00    -0.271 OA
ATOM     22  CB  GLN A   3      11.035  22.288   6.517  1.00  0.00    +0.041 C 
ATOM     23  CG  GLN A   3      11.708  22.339   5.138  1.00  0.00    +0.091 C 
ATOM     24  CD  GLN A   3      11.634  21.016   4.402  1.00  0.00    +0.261 C 
ATOM     25  OE1 GLN A   3      10.851  20.128   4.719  1.00  0.00    -0.272 OA
ATOM     26  NE2 GLN A   3      12.465  20.835   3.398  1.00  0.00    -0.088 N 
ATOM     27  N   ALA A   4      10.261  24.694   8.946  1.00  0.00    -0.196 N 
ATOM     28  CA  ALA A   4       8.824  24.994   8.960  1.00  0.00    +0.173 C 
ATOM     29  C   ALA A   4       8.376  25.660   7.649  1.00  0.00    +0.262 C 
ATOM     30  O   ALA A   4       7.205  26.008   7.482  1.00  0.00    -0.271 OA
ATOM     31  CB  ALA A   4       8.491  25.874  10.164  1.00  0.00    +0.033 C 
ATOM     32  N   VAL A   5       9.303  25.845   6.709  1.00  0.00    -0.196 N 
ATOM     33  CA  VAL A   5       8.975  26.164   5.324  1.00  0.00    +0.173 C 
ATOM     34  C   VAL A   5       8.451  24.915   4.621  1.00  0.00    +0.262 C 
ATOM     35  O   VAL A   5       8.960  23.820   4.830  1.00  0.00    -0.271 OA
ATOM     36  CB  VAL A   5      10.185  26.748   4.572  1.00  0.00    +0.029 C 
ATOM     37  CG1 VAL A   5      10.888  27.832   5.397  1.00  0.00    +0.002 C 
ATOM     38  CG2 VAL A   5      11.253  25.715   4.203  1.00  0.00    +0.002 C 
ATOM     39  N   ASN A   6       7.496  25.081   3.716  1.00  0.00    -0.196 N 
ATOM     40  CA  ASN A   6       7.327  24.178   2.575  1.00  0.00    +0.182 C 
ATOM     41  C   ASN A   6       8.008  24.761   1.333  1.00  0.00    +0.262 C 
ATOM     42  O   ASN A   6       7.381  24.944   0.289  1.00  0.00    -0.271 OA
ATOM     43  CB  ASN A   6       5.843  23.877   2.327  1.00  0.00    +0.120 C 
ATOM     44  CG  ASN A   6       5.331  22.768   3.210  1.00  0.00    +0.263 C 
ATOM     45  OD1 ASN A   6       5.728  21.616   3.087  1.00  0.00    -0.272 OA
ATOM     46  ND2 ASN A   6       4.419  23.074   4.103  1.00  0.00    -0.088 N 
ATOM     47  N   ALA A   7       9.307  25.046   1.439  1.00  0.00    -0.196 N 
ATOM     48  CA  ALA A   7      10.173  25.074   0.267  1.00  0.00    +0.173 C 
ATOM     49  C   ALA A   7      10.229  23.668  -0.338  1.00  0.00    +0.262 C 
ATOM     50  O   ALA A   7      10.546  22.696   0.357  1.00  0.00    -0.271 OA
ATOM     51  CB  ALA A   7      11.575  25.547   0.654  1.00  0.00    +0.033 C 
ATOM     52  N   LEU A   8       9.907  23.557  -1.624  1.00  0.00    -0.196 N 
ATOM     53  CA  LEU A   8       9.952  22.280  -2.318  1.00  0.00    +0.173 C 
ATOM     54  C   LEU A   8      11.387  21.921  -2.694  1.00  0.00    +0.262 C 
ATOM     55  O   LEU A   8      12.158  22.768  -3.151  1.00  0.00    -0.271 OA
ATOM     56  CB  LEU A   8       9.081  22.296  -3.582  1.00  0.00    +0.031 C 
ATOM     57  CG  LEU A   8       7.572  22.485  -3.341  1.00  0.00    +0.002 C 
ATOM     58  CD1 LEU A   8       6.771  21.557  -4.250  1.00  0.00    +0.000 C 
ATOM     59  CD2 LEU A   8       7.122  23.888  -3.737  1.00  0.00    +0.000 C 
ATOM     60  N   LEU A   9      11.672  20.629  -2.602  1.00  0.00    -0.196 N 
ATOM     61  CA  LEU A   9      12.264  19.892  -3.706  1.00  0.00    +0.173 C 
ATOM     62  C   LEU A   9      11.212  18.944  -4.288  1.00  0.00    +0.262 C 
ATOM     63  O   LEU A   9      10.293  18.511  -3.595  1.00  0.00    -0.271 OA
ATOM     64  CB  LEU A   9      13.525  19.173  -3.199  1.00  0.00    +0.031 C 
ATOM     65  CG  LEU A   9      14.864  19.726  -3.732  1.00  0.00    +0.002 C 
ATOM     66  CD1 LEU A   9      15.955  19.417  -2.717  1.00  0.00    +0.000 C 
ATOM     67  CD2 LEU A   9      14.876  21.248  -3.845  1.00  0.00    +0.000 C 
ATOM     68  N   VAL A  10      11.315  18.623  -5.568  1.00  0.00    -0.196 N 
ATOM     69  CA  VAL A  10      12.594  18.524  -6.277  1.00  0.00    +0.173 C 
ATOM     70  C   VAL A  10      12.662  19.422  -7.490  1.00  0.00    +0.262 C 
ATOM     71  O   VAL A  10      11.717  19.484  -8.271  1.00  0.00    -0.271 OA
ATOM     72  CB  VAL A  10      12.921  17.063  -6.635  1.00  0.00    +0.029 C 
ATOM     73  CG1 VAL A  10      14.141  16.636  -5.836  1.00  0.00    +0.002 C 
ATOM     74  CG2 VAL A  10      11.804  16.071  -6.280  1.00  0.00    +0.002 C 
ATOM     75  N   PHE A  11      13.817  20.062  -7.676  1.00  0.00    -0.196 N 
ATOM     76  CA  PHE A  11      14.439  20.090  -8.991  1.00  0.00    +0.177 C 
ATOM     77  C   PHE A  11      15.297  18.846  -9.145  1.00  0.00    +0.262 C 
ATOM     78  O   PHE A  11      16.298  18.719  -8.429  1.00  0.00    -0.271 OA
ATOM     79  CB  PHE A  11      15.326  21.330  -9.155  1.00  0.00    +0.057 C 
ATOM     80  CG  PHE A  11      16.274  21.240 -10.339  1.00  0.00    -0.020 A 
ATOM     81  CD1 PHE A  11      17.525  20.603 -10.208  1.00  0.00    -0.004 A 
ATOM     82  CE1 PHE A  11      18.381  20.480 -11.307  1.00  0.00    -0.000 A 
ATOM     83  CD2 PHE A  11      15.908  21.794 -11.575  1.00  0.00    -0.004 A 
ATOM     84  CE2 PHE A  11      16.787  21.710 -12.668  1.00  0.00    -0.000 A 
ATOM     85  CZ  PHE A  11      18.019  21.048 -12.536  1.00  0.00    -0.000 A 
ATOM     86  N   PHE A  12      14.925  18.004 -10.114  1.00  0.00    -0.196 N 
ATOM     87  CA  PHE A  12      15.896  17.429 -11.052  1.00  0.00    +0.177 C 
ATOM     88  C   PHE A  12      15.738  18.138 -12.396  1.00  0.00    +0.262 C 
ATOM     89  O   PHE A  12      16.722  18.383 -13.087  1.00  0.00    -0.271 OA
ATOM     90  CB  PHE A  12      15.709  15.917 -11.237  1.00  0.00    +0.057 C 
ATOM     91  CG  PHE A  12      15.638  15.088  -9.979  1.00  0.00    -0.020 A 
ATOM     92  CD1 PHE A  12      15.686  15.660  -8.709  1.00  0.00    -0.004 A 
ATOM     93  CE1 PHE A  12      15.659  14.902  -7.559  1.00  0.00    -0.000 A 
ATOM     94  CD2 PHE A  12      15.621  13.692 -10.060  1.00  0.00    -0.004 A 
ATOM     95  CE2 PHE A  12      15.556  12.921  -8.887  1.00  0.00    -0.000 A 
ATOM     96  CZ  PHE A  12      15.519  13.531  -7.629  1.00  0.00    -0.000 A 
ATOM     97  N   ALA A  13      14.510  18.521 -12.769  1.00  0.00    -0.196 N 
ATOM     98  CA  ALA A  13      13.715  17.632 -13.620  1.00  0.00    +0.173 C 
ATOM     99  C   ALA A  13      14.407  17.481 -14.978  1.00  0.00    +0.262 C 
ATOM    100  O   ALA A  13      14.845  18.471 -15.570  1.00  0.00    -0.271 OA
ATOM    101  CB  ALA A  13      12.305  18.200 -13.800  1.00  0.00    +0.033 C 
ATOM    102  N   GLY A  14      14.516  16.249 -15.458  1.00  0.00    -0.194 N 
ATOM    103  CA  GLY A  14      15.212  15.934 -16.699  1.00  0.00    +0.201 C 
ATOM    104  C   GLY A  14      14.299  15.239 -17.691  1.00  0.00    +0.264 C 
ATOM    105  O   GLY A  14      13.082  15.444 -17.708  1.00  0.00    -0.271 OA
ATOM    106  N   SER A  15      14.911  14.421 -18.534  1.00  0.00    -0.194 N 
ATOM    107  CA  SER A  15      14.273  13.890 -19.723  1.00  0.00    +0.205 C 
ATOM    108  C   SER A  15      13.130  12.916 -19.384  1.00  0.00    +0.264 C 
ATOM    109  O   SER A  15      13.203  12.192 -18.389  1.00  0.00    -0.271 OA
ATOM    110  CB  SER A  15      15.384  13.279 -20.598  1.00  0.00    +0.213 C 
ATOM    111  OG  SER A  15      15.760  12.015 -20.117  1.00  0.00    -0.218 OA
ATOM    112  N   SER A  16      12.033  12.874 -20.142  1.00  0.00    -0.194 N 
ATOM    113  CA  SER A  16      12.074  12.365 -21.520  1.00  0.00    +0.205 C 
ATOM    114  C   SER A  16      13.027  13.099 -22.445  1.00  0.00    +0.264 C 
ATOM    115  O   SER A  16      13.299  14.287 -22.271  1.00  0.00    -0.271 OA
ATOM    116  CB  SER A  16      10.681  12.408 -22.158  1.00  0.00    +0.213 C 
ATOM    117  OG  SER A  16      10.378  13.707 -22.638  1.00  0.00    -0.218 OA
ATOM    118  N   ASP A  17      13.511  12.422 -23.479  1.00  0.00    -0.196 N 
ATOM    119  CA  ASP A  17      13.814  13.140 -24.709  1.00  0.00    +0.184 C 
ATOM    120  C   ASP A  17      12.502  13.644 -25.327  1.00  0.00    +0.262 C 
ATOM    121  O   ASP A  17      11.542  12.882 -25.471  1.00  0.00    -0.271 OA
ATOM    122  CB  ASP A  17      14.577  12.239 -25.686  1.00  0.00    +0.145 C 
ATOM    123  CG  ASP A  17      14.532  12.692 -27.160  1.00  0.00    +0.367 C 
ATOM    124  OD1 ASP A  17      13.535  13.246 -27.668  1.00  0.00    -0.246 OA
ATOM    125  OD2 ASP A  17      15.513  12.437 -27.887  1.00  0.00    -0.246 OA
ATOM    126  N   ALA A  18      12.457  14.885 -25.799  1.00  0.00    -0.196 N 
ATOM    127  CA  ALA A  18      12.989  16.033 -25.087  1.00  0.00    +0.173 C 
ATOM    128  C   ALA A  18      11.972  17.150 -25.204  1.00  0.00    +0.262 C 
ATOM    129  O   ALA A  18      11.297  17.301 -26.228  1.00  0.00    -0.271 OA
ATOM    130  CB  ALA A  18      14.359  16.487 -25.593  1.00  0.00    +0.033 C 
ATOM    131  N   ILE A  19      11.864  17.934 -24.144  1.00  0.00    -0.196 N 
ATOM    132  CA  ILE A  19      10.758  18.846 -23.989  1.00  0.00    +0.173 C 
ATOM    133  C   ILE A  19      11.272  20.279 -23.969  1.00  0.00    +0.262 C 
ATOM    134  O   ILE A  19      11.983  20.680 -23.047  1.00  0.00    -0.271 OA
ATOM    135  CB  ILE A  19       9.984  18.486 -22.715  1.00  0.00    +0.029 C 
ATOM    136  CG1 ILE A  19       9.769  16.993 -22.451  1.00  0.00    +0.002 C 
ATOM    137  CG2 ILE A  19       8.634  19.085 -22.828  1.00  0.00    +0.002 C 
ATOM    138  CD1 ILE A  19       9.278  16.708 -21.025  1.00  0.00    +0.000 C 
ATOM    139  N   ARG A  20      10.841  21.072 -24.953  1.00  0.00    -0.196 N 
ATOM    140  CA  ARG A  20      10.338  22.421 -24.660  1.00  0.00    +0.173 C 
ATOM    141  C   ARG A  20       9.018  22.361 -23.891  1.00  0.00    +0.262 C 
ATOM    142  O   ARG A  20       8.769  23.176 -23.006  1.00  0.00    -0.271 OA
ATOM    143  CB  ARG A  20      10.158  23.191 -25.980  1.00  0.00    +0.033 C 
ATOM    144  CG  ARG A  20       9.773  24.668 -25.781  1.00  0.00    +0.029 C 
ATOM    145  CD  ARG A  20       8.262  24.892 -25.644  1.00  0.00    +0.129 C 
ATOM    146  NE  ARG A  20       7.886  26.300 -25.755  1.00  0.00    -0.234 NA
ATOM    147  CZ  ARG A  20       7.710  27.160 -24.776  1.00  0.00    +0.284 C 
ATOM    148  NH1 ARG A  20       8.075  26.907 -23.549  1.00  0.00    -0.104 N 
ATOM    149  NH2 ARG A  20       7.151  28.307 -25.032  1.00  0.00    -0.104 N 
ATOM    150  N   ARG A  21       8.151  21.443 -24.319  1.00  0.00    -0.194 N 
ATOM    151  CA  ARG A  21       6.684  21.492 -24.213  1.00  0.00    +0.198 C 
ATOM    152  C   ARG A  21       6.028  20.827 -22.997  1.00  0.00    +0.384 C 
ATOM    153  O   ARG A  21       6.655  20.512 -21.981  1.00  0.00    -0.244 OA
ATOM    154  CB  ARG A  21       6.117  20.918 -25.526  1.00  0.00    +0.035 C 
ATOM    155  CG  ARG A  21       6.315  21.886 -26.697  1.00  0.00    +0.029 C 
ATOM    156  CD  ARG A  21       6.823  21.218 -27.973  1.00  0.00    +0.129 C 
ATOM    157  NE  ARG A  21       5.782  21.113 -29.003  1.00  0.00    -0.234 NA
ATOM    158  CZ  ARG A  21       5.252  20.002 -29.467  1.00  0.00    +0.284 C 
ATOM    159  NH1 ARG A  21       4.517  20.030 -30.540  1.00  0.00    -0.104 N 
ATOM    160  NH2 ARG A  21       5.445  18.850 -28.889  1.00  0.00    -0.104 N 
ATOM    161  OXT ARG A  21       4.793  20.701 -22.987  1.00  0.00    -0.244 OA
ATOM    162  H   MET A   1      19.384  24.177   8.587  1.00  0.00    +0.000 HD
ATOM    163  H   MET A   1      19.786  25.736   9.010  1.00  0.00    +0.000 HD
ATOM    164  H   LYS A   2      16.084  23.925  10.726  1.00  0.00    +0.000 HD
ATOM    165  H   LYS A   2      13.699  23.252  12.674  1.00  0.00    +0.000 HD
ATOM    166  H   LYS A   2      13.431  23.278  14.318  1.00  0.00    +0.000 HD
ATOM    167  H   GLN A   3      13.219  21.899   7.676  1.00  0.00    +0.000 HD
ATOM    168  H   GLN A   3      12.451  19.990   2.893  1.00  0.00    +0.000 HD
ATOM    169  H   GLN A   3      13.102  21.544   3.152  1.00  0.00    +0.000 HD
ATOM    170  H   ALA A   4      10.907  25.416   9.119  1.00  0.00    +0.000 HD
ATOM    171  H   VAL A   5      10.252  25.761   6.961  1.00  0.00    +0.000 HD
ATOM    172  H   ASN A   6       6.877  25.840   3.816  1.00  0.00    +0.000 HD
ATOM    173  H   ASN A   6       4.109  24.005   4.191  1.00  0.00    +0.000 HD
ATOM    174  H   ASN A   6       4.045  22.373   4.685  1.00  0.00    +0.000 HD
ATOM    175  H   ALA A   7       9.687  25.242   2.325  1.00  0.00    +0.000 HD
ATOM    176  H   LEU A   8       9.630  24.361  -2.120  1.00  0.00    +0.000 HD
ATOM    177  H   LEU A   9      11.477  20.155  -1.762  1.00  0.00    +0.000 HD
ATOM    178  H   VAL A  10      10.488  18.440  -6.071  1.00  0.00    +0.000 HD
ATOM    179  H   PHE A  11      14.251  20.518  -6.920  1.00  0.00    +0.000 HD
ATOM    180  H   PHE A  12      13.975  17.763 -10.200  1.00  0.00    +0.000 HD
ATOM    181  H   ALA A  13      14.147  19.388 -12.476  1.00  0.00    +0.000 HD
ATOM    182  H   GLY A  14      14.108  15.511 -14.950  1.00  0.00    +0.000 HD
ATOM    183  H   SER A  15      15.842  14.163 -18.344  1.00  0.00    +0.000 HD
ATOM    184  H   SER A  15      14.995  11.420 -20.138  1.00  0.00    +0.000 HD
ATOM    185  H   SER A  16      11.177  13.191 -19.771  1.00  0.00    +0.000 HD
ATOM    186  H   SER A  16      11.025  13.961 -23.314  1.00  0.00    +0.000 HD
ATOM    187  H   ASP A  17      13.663  11.452 -23.414  1.00  0.00    +0.000 HD
ATOM    188  H   ASP A  17      12.788  13.445 -27.136  1.00  0.00    +0.000 HD
ATOM    189  H   ALA A  18      12.042  15.034 -26.679  1.00  0.00    +0.000 HD
ATOM    190  H   ILE A  19      12.555  17.893 -23.445  1.00  0.00    +0.000 HD
ATOM    191  H   ARG A  20      10.860  20.750 -25.883  1.00  0.00    +0.000 HD
ATOM    192  H   ARG A  20       8.500  26.046 -23.329  1.00  0.00    +0.000 HD
ATOM    193  H   ARG A  20       7.925  27.576 -22.842  1.00  0.00    +0.000 HD
ATOM    194  H   ARG A  20       6.867  28.522 -25.950  1.00  0.00    +0.000 HD
ATOM    195  H   ARG A  20       7.012  28.959 -24.308  1.00  0.00    +0.000 HD
ATOM    196  H   ARG A  21       8.534  20.647 -24.754  1.00  0.00    +0.000 HD
ATOM    197  H   ARG A  21       7.588  20.597 -21.961  1.00  0.00    +0.000 HD
ATOM    198  H   ARG A  21       4.120  19.198 -30.887  1.00  0.00    +0.000 HD
ATOM    199  H   ARG A  21       4.358  20.883 -31.004  1.00  0.00    +0.000 HD
ATOM    200  H   ARG A  21       5.034  18.037 -29.262  1.00  0.00    +0.000 HD
ATOM    201  H   ARG A  21       6.003  18.793 -28.080  1.00  0.00    +0.000 HD
ENDROOT
TORSDOF 0
