REMARK  Name = /var/folders/yp/yjbh3p597675h2qddgqr02y00000gn/T/tmplyo68_4n.pdb
REMARK     285 UNITARY VALUES FOR THE UNIT CELL AUTOMATICALLY SET
REMARK     285 BY MDANALYSIS PDBWRITER BECAUSE UNIT CELL INFORMATION
REMARK     285 WAS MISSING.
REMARK     285 PROTEIN DATA BANK CONVENTIONS REQUIRE THAT
REMARK     285 CRYST1 RECORD IS INCLUDED, BUT THE VALUES ON
REMARK     285 THIS RECORD ARE MEANINGLESS.
REMARK     285 UNITARY VALUES FOR THE UNIT CELL AUTOMATICALLY SET
REMARK     285 BY MDANALYSIS PDBWRITER BECAUSE UNIT CELL INFORMATION
REMARK     285 WAS MISSING.
REMARK     285 PROTEIN DATA BANK CONVENTIONS REQUIRE THAT
REMARK     285 CRYST1 RECORD IS INCLUDED, BUT THE VALUES ON
REMARK     285 THIS RECORD ARE MEANINGLESS.
REMARK                            x       y       z     vdW  Elec       q    Type
REMARK                         _______ _______ _______ _____ _____    ______ ____
REMARK  Name = /var/folders/yp/yjbh3p597675h2qddgqr02y00000gn/T/tmplyo68_4n.pdb
REMARK     285 UNITARY VALUES FOR THE UNIT CELL AUTOMATICALLY SET
REMARK     285 BY MDANALYSIS PDBWRITER BECAUSE UNIT CELL INFORMATION
REMARK     285 WAS MISSING.
REMARK     285 PROTEIN DATA BANK CONVENTIONS REQUIRE THAT
REMARK     285 CRYST1 RECORD IS INCLUDED, BUT THE VALUES ON
REMARK     285 THIS RECORD ARE MEANINGLESS.
REMARK     285 UNITARY VALUES FOR THE UNIT CELL AUTOMATICALLY SET
REMARK     285 BY MDANALYSIS PDBWRITER BECAUSE UNIT CELL INFORMATION
REMARK     285 WAS MISSING.
REMARK     285 PROTEIN DATA BANK CONVENTIONS REQUIRE THAT
REMARK     285 CRYST1 RECORD IS INCLUDED, BUT THE VALUES ON
REMARK     285 THIS RECORD ARE MEANINGLESS.
REMARK                            x       y       z     vdW  Elec       q    Type
REMARK                         _______ _______ _______ _____ _____    ______ ____
ROOT
ATOM      1  N   MET A   1     -22.122 -14.795  -2.130  1.00  0.00    -0.123 NA
ATOM      2  CA  MET A   1     -22.199 -14.798  -0.671  1.00  0.00    +0.170 C 
ATOM      3  C   MET A   1     -22.484 -13.404  -0.139  1.00  0.00    +0.259 C 
ATOM      4  O   MET A   1     -21.907 -12.425  -0.611  1.00  0.00    -0.272 OA
ATOM      5  CB  MET A   1     -20.908 -15.320  -0.061  1.00  0.00    +0.040 C 
ATOM      6  CG  MET A   1     -19.806 -14.277   0.016  1.00  0.00    +0.060 C 
ATOM      7  SD  MET A   1     -19.845 -13.334   1.561  1.00  0.00    -0.139 S 
ATOM      8  CE  MET A   1     -19.062 -14.495   2.675  1.00  0.00    +0.069 C 
ATOM      9  N   LYS A   2     -23.372 -13.312   0.846  1.00  0.00    -0.197 N 
ATOM     10  CA  LYS A   2     -23.961 -12.029   1.222  1.00  0.00    +0.173 C 
ATOM     11  C   LYS A   2     -22.962 -11.172   1.984  1.00  0.00    +0.262 C 
ATOM     12  O   LYS A   2     -22.253 -11.669   2.859  1.00  0.00    -0.271 OA
ATOM     13  CB  LYS A   2     -25.205 -12.232   2.069  1.00  0.00    +0.031 C 
ATOM     14  CG  LYS A   2     -26.015 -10.964   2.286  1.00  0.00    +0.009 C 
ATOM     15  CD  LYS A   2     -27.282 -11.232   3.081  1.00  0.00    +0.049 C 
ATOM     16  CE  LYS A   2     -27.657 -10.082   3.901  1.00  0.00    +0.096 C 
ATOM     17  NZ  LYS A   2     -28.876  -9.552   3.951  1.00  0.00    -0.151 NA
ATOM     18  N   GLN A   3     -22.906  -9.885   1.654  1.00  0.00    -0.196 N 
ATOM     19  CA  GLN A   3     -22.997  -8.836   2.665  1.00  0.00    +0.176 C 
ATOM     20  C   GLN A   3     -24.153  -7.895   2.371  1.00  0.00    +0.263 C 
ATOM     21  O   GLN A   3     -24.386  -7.533   1.219  1.00  0.00    -0.271 OA
ATOM     22  CB  GLN A   3     -21.703  -8.044   2.742  1.00  0.00    +0.070 C 
ATOM     23  CG  GLN A   3     -21.768  -6.856   3.688  1.00  0.00    +0.197 C 
ATOM     24  CD  GLN A   3     -22.620  -5.719   3.147  1.00  0.00    +0.257 C 
ATOM     25  OE1 GLN A   3     -22.118  -4.824   2.451  1.00  0.00    -0.272 OA
ATOM     26  NE2 GLN A   3     -23.911  -5.745   3.459  1.00  0.00    -0.221 N 
ATOM     27  N   ALA A   4     -24.879  -7.499   3.414  1.00  0.00    -0.181 N 
ATOM     28  CA  ALA A   4     -24.909  -6.101   3.830  1.00  0.00    +0.214 C 
ATOM     29  C   ALA A   4     -23.552  -5.655   4.349  1.00  0.00    +0.280 C 
ATOM     30  O   ALA A   4     -22.790  -6.461   4.881  1.00  0.00    -0.317 OA
ATOM     31  N   VAL A   5     -23.248  -4.369   4.196  1.00  0.00    -0.165 NA
ATOM     32  CA  VAL A   5     -22.690  -3.585   5.293  1.00  0.00    +0.154 C 
ATOM     33  C   VAL A   5     -23.816  -3.008   6.136  1.00  0.00    +0.258 C 
ATOM     34  O   VAL A   5     -24.894  -2.716   5.622  1.00  0.00    -0.272 OA
ATOM     35  CB  VAL A   5     -21.804  -2.456   4.791  1.00  0.00    +0.025 C 
ATOM     36  CG1 VAL A   5     -20.530  -3.011   4.158  1.00  0.00    +0.002 C 
ATOM     37  CG2 VAL A   5     -22.537  -1.634   3.734  1.00  0.00    +0.002 C 
ATOM     38  N   ASN A   6     -23.567  -2.844   7.432  1.00  0.00    -0.196 N 
ATOM     39  CA  ASN A   6     -24.072  -1.686   8.164  1.00  0.00    +0.182 C 
ATOM     40  C   ASN A   6     -22.937  -0.828   8.701  1.00  0.00    +0.262 C 
ATOM     41  O   ASN A   6     -21.877  -1.344   9.054  1.00  0.00    -0.271 OA
ATOM     42  CB  ASN A   6     -24.970  -2.116   9.311  1.00  0.00    +0.120 C 
ATOM     43  CG  ASN A   6     -26.273  -2.737   8.833  1.00  0.00    +0.263 C 
ATOM     44  OD1 ASN A   6     -26.269  -3.689   8.053  1.00  0.00    -0.272 OA
ATOM     45  ND2 ASN A   6     -27.394  -2.195   9.300  1.00  0.00    -0.088 N 
ATOM     46  N   ALA A   7     -23.159   0.482   8.763  1.00  0.00    -0.196 N 
ATOM     47  CA  ALA A   7     -22.529   1.404   7.822  1.00  0.00    +0.173 C 
ATOM     48  C   ALA A   7     -21.021   1.436   8.013  1.00  0.00    +0.262 C 
ATOM     49  O   ALA A   7     -20.278   1.700   7.071  1.00  0.00    -0.271 OA
ATOM     50  CB  ALA A   7     -23.092   2.807   7.982  1.00  0.00    +0.033 C 
ATOM     51  N   LEU A   8     -20.571   1.168   9.236  1.00  0.00    -0.196 N 
ATOM     52  CA  LEU A   8     -20.065   2.224  10.108  1.00  0.00    +0.173 C 
ATOM     53  C   LEU A   8     -18.553   2.137  10.244  1.00  0.00    +0.262 C 
ATOM     54  O   LEU A   8     -17.993   1.043  10.300  1.00  0.00    -0.271 OA
ATOM     55  CB  LEU A   8     -20.703   2.138  11.486  1.00  0.00    +0.031 C 
ATOM     56  CG  LEU A   8     -22.227   1.993  11.513  1.00  0.00    +0.002 C 
ATOM     57  CD1 LEU A   8     -22.705   1.722  12.935  1.00  0.00    +0.000 C 
ATOM     58  CD2 LEU A   8     -22.651   0.677  10.870  1.00  0.00    +0.000 C 
ATOM     59  N   LEU A   9     -17.892   3.290  10.296  1.00  0.00    -0.196 N 
ATOM     60  CA  LEU A   9     -18.070   4.219  11.407  1.00  0.00    +0.173 C 
ATOM     61  C   LEU A   9     -18.641   5.542  10.922  1.00  0.00    +0.262 C 
ATOM     62  O   LEU A   9     -18.302   6.009   9.836  1.00  0.00    -0.271 OA
ATOM     63  CB  LEU A   9     -16.751   4.468  12.119  1.00  0.00    +0.031 C 
ATOM     64  CG  LEU A   9     -16.515   3.664  13.401  1.00  0.00    +0.002 C 
ATOM     65  CD1 LEU A   9     -15.040   3.696  13.781  1.00  0.00    +0.000 C 
ATOM     66  CD2 LEU A   9     -16.654   2.171  13.130  1.00  0.00    +0.000 C 
ATOM     67  N   VAL A  10     -19.510   6.147  11.726  1.00  0.00    -0.196 N 
ATOM     68  CA  VAL A  10     -19.137   6.555  13.078  1.00  0.00    +0.173 C 
ATOM     69  C   VAL A  10     -20.089   5.930  14.084  1.00  0.00    +0.262 C 
ATOM     70  O   VAL A  10     -21.283   6.224  14.082  1.00  0.00    -0.271 OA
ATOM     71  CB  VAL A  10     -19.150   8.066  13.238  1.00  0.00    +0.029 C 
ATOM     72  CG1 VAL A  10     -18.490   8.475  14.552  1.00  0.00    +0.002 C 
ATOM     73  CG2 VAL A  10     -18.380   8.730  12.097  1.00  0.00    +0.002 C 
ATOM     74  N   PHE A  11     -19.562   5.065  14.947  1.00  0.00    -0.196 N 
ATOM     75  CA  PHE A  11     -20.185   4.806  16.241  1.00  0.00    +0.177 C 
ATOM     76  C   PHE A  11     -19.723   5.821  17.274  1.00  0.00    +0.262 C 
ATOM     77  O   PHE A  11     -18.524   5.979  17.503  1.00  0.00    -0.271 OA
ATOM     78  CB  PHE A  11     -19.863   3.403  16.728  1.00  0.00    +0.057 C 
ATOM     79  CG  PHE A  11     -20.403   3.094  18.092  1.00  0.00    -0.020 A 
ATOM     80  CD1 PHE A  11     -21.731   2.713  18.245  1.00  0.00    -0.004 A 
ATOM     81  CE1 PHE A  11     -22.232   2.427  19.511  1.00  0.00    -0.000 A 
ATOM     82  CD2 PHE A  11     -19.575   3.190  19.206  1.00  0.00    -0.004 A 
ATOM     83  CE2 PHE A  11     -20.076   2.904  20.470  1.00  0.00    -0.000 A 
ATOM     84  CZ  PHE A  11     -21.403   2.522  20.623  1.00  0.00    -0.000 A 
ATOM     85  N   PHE A  12     -20.673   6.511  17.898  1.00  0.00    -0.196 N 
ATOM     86  CA  PHE A  12     -20.645   6.709  19.345  1.00  0.00    +0.177 C 
ATOM     87  C   PHE A  12     -20.993   5.419  20.071  1.00  0.00    +0.262 C 
ATOM     88  O   PHE A  12     -22.098   4.898  19.922  1.00  0.00    -0.271 OA
ATOM     89  CB  PHE A  12     -21.610   7.805  19.762  1.00  0.00    +0.053 C 
ATOM     90  CG  PHE A  12     -21.371   8.329  21.146  1.00  0.00    -0.046 C 
ATOM     91  CD1 PHE A  12     -21.823   7.614  22.249  1.00  0.00    +0.026 C 
ATOM     92  CE1 PHE A  12     -21.602   8.101  23.533  1.00  0.00    +0.176 C 
ATOM     93  CD2 PHE A  12     -20.698   9.533  21.328  1.00  0.00    -0.034 C 
ATOM     94  CE2 PHE A  12     -20.477  10.021  22.609  1.00  0.00    +0.029 C 
ATOM     95  CZ  PHE A  12     -20.929   9.304  23.713  1.00  0.00    +0.190 C 
ATOM     96  N   ALA A  13     -20.051   4.904  20.857  1.00  0.00    -0.196 N 
ATOM     97  CA  ALA A  13     -20.276   4.710  22.285  1.00  0.00    +0.173 C 
ATOM     98  C   ALA A  13     -20.021   5.993  23.058  1.00  0.00    +0.261 C 
ATOM     99  O   ALA A  13     -20.169   6.026  24.280  1.00  0.00    -0.271 OA
ATOM    100  CB  ALA A  13     -19.383   3.605  22.827  1.00  0.00    +0.033 C 
ATOM    101  N   GLY A  14     -19.640   7.051  22.348  1.00  0.00    -0.202 N 
ATOM    102  CA  GLY A  14     -19.021   8.211  22.985  1.00  0.00    +0.139 C 
ATOM    103  C   GLY A  14     -20.070   9.245  23.363  1.00  0.00    +0.053 C 
ATOM    104  O   GLY A  14     -21.265   8.951  23.369  1.00  0.00    -0.337 OA
ATOM    105  N   SER A  15     -19.624  10.457  23.681  1.00  0.00    -0.181 NA
ATOM    106  CA  SER A  15     -20.516  11.478  24.222  1.00  0.00    +0.186 C 
ATOM    107  C   SER A  15     -21.515  11.947  23.176  1.00  0.00    +0.260 C 
ATOM    108  O   SER A  15     -21.235  11.896  21.979  1.00  0.00    -0.272 OA
ATOM    109  CB  SER A  15     -19.721  12.667  24.734  1.00  0.00    +0.209 C 
ATOM    110  OG  SER A  15     -19.208  13.431  23.657  1.00  0.00    -0.218 OA
ATOM    111  N   SER A  16     -22.680  12.402  23.626  1.00  0.00    -0.194 N 
ATOM    112  CA  SER A  16     -22.810  13.751  24.171  1.00  0.00    +0.205 C 
ATOM    113  C   SER A  16     -22.204  13.845  25.562  1.00  0.00    +0.264 C 
ATOM    114  O   SER A  16     -21.947  14.942  26.058  1.00  0.00    -0.271 OA
ATOM    115  CB  SER A  16     -24.271  14.169  24.225  1.00  0.00    +0.213 C 
ATOM    116  OG  SER A  16     -24.992  13.359  25.137  1.00  0.00    -0.218 OA
ATOM    117  N   ASP A  17     -21.975  12.697  26.192  1.00  0.00    -0.196 N 
ATOM    118  CA  ASP A  17     -22.083  12.592  27.644  1.00  0.00    +0.184 C 
ATOM    119  C   ASP A  17     -20.789  13.016  28.319  1.00  0.00    +0.262 C 
ATOM    120  O   ASP A  17     -20.784  13.357  29.501  1.00  0.00    -0.271 OA
ATOM    121  CB  ASP A  17     -22.432  11.173  28.061  1.00  0.00    +0.145 C 
ATOM    122  CG  ASP A  17     -21.291  10.191  27.843  1.00  0.00    +0.367 C 
ATOM    123  OD1 ASP A  17     -20.276  10.564  27.216  1.00  0.00    -0.246 OA
ATOM    124  OD2 ASP A  17     -21.410   9.035  28.304  1.00  0.00    -0.246 OA
ATOM    125  N   ALA A  18     -19.689  12.993  27.570  1.00  0.00    -0.196 N 
ATOM    126  CA  ALA A  18     -18.495  12.271  27.996  1.00  0.00    +0.173 C 
ATOM    127  C   ALA A  18     -17.249  13.121  27.812  1.00  0.00    +0.262 C 
ATOM    128  O   ALA A  18     -16.964  13.583  26.708  1.00  0.00    -0.271 OA
ATOM    129  CB  ALA A  18     -18.342  10.976  27.215  1.00  0.00    +0.033 C 
ATOM    130  N   ILE A  19     -16.504  13.329  28.894  1.00  0.00    -0.196 N 
ATOM    131  CA  ILE A  19     -17.017  14.074  30.039  1.00  0.00    +0.173 C 
ATOM    132  C   ILE A  19     -16.006  15.126  30.464  1.00  0.00    +0.262 C 
ATOM    133  O   ILE A  19     -14.808  14.967  30.241  1.00  0.00    -0.271 OA
ATOM    134  CB  ILE A  19     -17.326  13.163  31.217  1.00  0.00    +0.029 C 
ATOM    135  CG1 ILE A  19     -18.835  13.033  31.418  1.00  0.00    +0.002 C 
ATOM    136  CG2 ILE A  19     -16.691  13.711  32.494  1.00  0.00    +0.002 C 
ATOM    137  CD1 ILE A  19     -19.252  11.778  32.168  1.00  0.00    +0.000 C 
ATOM    138  N   ARG A  20     -16.489  16.203  31.075  1.00  0.00    -0.196 N 
ATOM    139  CA  ARG A  20     -15.614  17.292  31.502  1.00  0.00    +0.173 C 
ATOM    140  C   ARG A  20     -14.737  16.860  32.666  1.00  0.00    +0.262 C 
ATOM    141  O   ARG A  20     -15.241  16.473  33.719  1.00  0.00    -0.271 OA
ATOM    142  CB  ARG A  20     -16.423  18.514  31.903  1.00  0.00    +0.033 C 
ATOM    143  CG  ARG A  20     -15.573  19.723  32.260  1.00  0.00    +0.029 C 
ATOM    144  CD  ARG A  20     -16.325  20.699  33.151  1.00  0.00    +0.129 C 
ATOM    145  NE  ARG A  20     -15.488  21.829  33.540  1.00  0.00    -0.234 NA
ATOM    146  CZ  ARG A  20     -14.265  21.727  34.051  1.00  0.00    +0.284 C 
ATOM    147  NH1 ARG A  20     -13.281  22.508  33.614  1.00  0.00    -0.104 N 
ATOM    148  NH2 ARG A  20     -14.024  20.836  35.008  1.00  0.00    -0.104 N 
ATOM    149  N   ARG A  21     -13.422  16.926  32.478  1.00  0.00    -0.194 N 
ATOM    150  CA  ARG A  21     -12.508  17.202  33.584  1.00  0.00    +0.198 C 
ATOM    151  C   ARG A  21     -11.945  18.611  33.484  1.00  0.00    +0.384 C 
ATOM    152  O   ARG A  21     -11.990  19.372  34.450  1.00  0.00    -0.244 OA
ATOM    153  CB  ARG A  21     -11.367  16.199  33.608  1.00  0.00    +0.035 C 
ATOM    154  CG  ARG A  21     -11.651  14.966  34.449  1.00  0.00    +0.029 C 
ATOM    155  CD  ARG A  21     -10.494  13.982  34.416  1.00  0.00    +0.129 C 
ATOM    156  NE  ARG A  21      -9.425  14.376  35.330  1.00  0.00    -0.234 NA
ATOM    157  CZ  ARG A  21      -9.584  14.602  36.631  1.00  0.00    +0.284 C 
ATOM    158  NH1 ARG A  21     -10.770  14.431  37.210  1.00  0.00    -0.104 N 
ATOM    159  NH2 ARG A  21      -8.547  15.004  37.360  1.00  0.00    -0.104 N 
ATOM    160  OXT ARG A  21     -11.436  19.008  32.437  1.00  0.00    -0.244 OA
ATOM    161  H   MET A   1     -22.997 -14.442  -2.517  1.00  0.00    +0.000 HD
ATOM    162  H   MET A   1     -21.961 -15.746  -2.464  1.00  0.00    +0.000 HD
ATOM    163  H   LYS A   2     -23.639 -14.126   1.332  1.00  0.00    +0.000 HD
ATOM    164  H   LYS A   2     -29.603  -9.936   3.410  1.00  0.00    +0.000 HD
ATOM    165  H   GLN A   3     -22.801  -9.634   0.707  1.00  0.00    +0.000 HD
ATOM    166  H   ALA A   4     -25.407  -8.163   3.914  1.00  0.00    +0.000 HD
ATOM    167  H   VAL A   5     -24.110  -3.901   3.916  1.00  0.00    +0.000 HD
ATOM    168  H   ASN A   6     -23.031  -3.519   7.909  1.00  0.00    +0.000 HD
ATOM    169  H   ASN A   6     -28.268  -2.556   9.024  1.00  0.00    +0.000 HD
ATOM    170  H   ASN A   6     -27.351  -1.433   9.922  1.00  0.00    +0.000 HD
ATOM    171  H   ALA A   7     -23.761   0.837   9.456  1.00  0.00    +0.000 HD
ATOM    172  H   LEU A   8     -20.579   0.239   9.560  1.00  0.00    +0.000 HD
ATOM    173  H   LEU A   9     -17.268   3.521   9.570  1.00  0.00    +0.000 HD
ATOM    174  H   VAL A  10     -20.423   6.323  11.404  1.00  0.00    +0.000 HD
ATOM    175  H   PHE A  11     -18.735   4.589  14.706  1.00  0.00    +0.000 HD
ATOM    176  H   PHE A  12     -21.412   6.896  17.374  1.00  0.00    +0.000 HD
ATOM    177  H   ALA A  13     -19.185   4.647  20.466  1.00  0.00    +0.000 HD
ATOM    178  H   GLY A  14     -19.777   7.052  21.373  1.00  0.00    +0.000 HD
ATOM    179  H   SER A  15     -19.273  10.663  22.746  1.00  0.00    +0.000 HD
ATOM    180  H   SER A  15     -18.617  12.879  23.121  1.00  0.00    +0.000 HD
ATOM    181  H   SER A  16     -23.472  11.817  23.592  1.00  0.00    +0.000 HD
ATOM    182  H   SER A  16     -24.614  13.457  26.025  1.00  0.00    +0.000 HD
ATOM    183  H   ASP A  17     -21.727  11.901  25.668  1.00  0.00    +0.000 HD
ATOM    184  H   ASP A  17     -20.225  11.440  26.886  1.00  0.00    +0.000 HD
ATOM    185  H   ALA A  18     -19.681  13.473  26.711  1.00  0.00    +0.000 HD
ATOM    186  H   ILE A  19     -15.586  12.972  28.923  1.00  0.00    +0.000 HD
ATOM    187  H   ARG A  20     -17.457  16.269  31.243  1.00  0.00    +0.000 HD
ATOM    188  H   ARG A  20     -13.455  23.169  32.905  1.00  0.00    +0.000 HD
ATOM    189  H   ARG A  20     -12.379  22.425  33.998  1.00  0.00    +0.000 HD
ATOM    190  H   ARG A  20     -14.750  20.257  35.334  1.00  0.00    +0.000 HD
ATOM    191  H   ARG A  20     -13.120  20.756  35.390  1.00  0.00    +0.000 HD
ATOM    192  H   ARG A  21     -13.056  16.787  31.575  1.00  0.00    +0.000 HD
ATOM    193  H   ARG A  21     -10.876  14.601  38.174  1.00  0.00    +0.000 HD
ATOM    194  H   ARG A  21     -11.540  14.135  36.674  1.00  0.00    +0.000 HD
ATOM    195  H   ARG A  21      -8.659  15.172  38.324  1.00  0.00    +0.000 HD
ATOM    196  H   ARG A  21      -7.667  15.132  36.937  1.00  0.00    +0.000 HD
ATOM    197  H   ARG A  21     -11.395  18.441  31.692  1.00  0.00    +0.000 HD
ATOM      1  CB  ALA A   4     -25.961  -5.882   4.907  1.00  0.00    +0.000 C 
ENDROOT
TORSDOF 0
