REMARK  Name = /var/folders/yp/yjbh3p597675h2qddgqr02y00000gn/T/tmpjcsmt40u.pdb
REMARK     285 UNITARY VALUES FOR THE UNIT CELL AUTOMATICALLY SET
REMARK     285 BY MDANALYSIS PDBWRITER BECAUSE UNIT CELL INFORMATION
REMARK     285 WAS MISSING.
REMARK     285 PROTEIN DATA BANK CONVENTIONS REQUIRE THAT
REMARK     285 CRYST1 RECORD IS INCLUDED, BUT THE VALUES ON
REMARK     285 THIS RECORD ARE MEANINGLESS.
REMARK     285 UNITARY VALUES FOR THE UNIT CELL AUTOMATICALLY SET
REMARK     285 BY MDANALYSIS PDBWRITER BECAUSE UNIT CELL INFORMATION
REMARK     285 WAS MISSING.
REMARK     285 PROTEIN DATA BANK CONVENTIONS REQUIRE THAT
REMARK     285 CRYST1 RECORD IS INCLUDED, BUT THE VALUES ON
REMARK     285 THIS RECORD ARE MEANINGLESS.
REMARK                            x       y       z     vdW  Elec       q    Type
REMARK                         _______ _______ _______ _____ _____    ______ ____
ROOT
ATOM      1  N   MET A   1       7.859  -3.002 -22.665  1.00  0.00    -0.123 NA
ATOM      2  CA  MET A   1       7.621  -1.875 -23.563  1.00  0.00    +0.170 C 
ATOM      3  C   MET A   1       8.930  -1.340 -24.122  1.00  0.00    +0.259 C 
ATOM      4  O   MET A   1       9.989  -1.538 -23.529  1.00  0.00    -0.272 OA
ATOM      5  CB  MET A   1       6.883  -0.757 -22.847  1.00  0.00    +0.040 C 
ATOM      6  CG  MET A   1       7.773   0.086 -21.949  1.00  0.00    +0.060 C 
ATOM      7  SD  MET A   1       8.113   1.723 -22.642  1.00  0.00    -0.139 S 
ATOM      8  CE  MET A   1       7.792   2.758 -21.217  1.00  0.00    +0.069 C 
ATOM      9  N   LYS A   2       8.859  -0.662 -25.263  1.00  0.00    -0.197 N 
ATOM     10  CA  LYS A   2      10.062  -0.257 -25.983  1.00  0.00    +0.173 C 
ATOM     11  C   LYS A   2      10.248   1.252 -25.931  1.00  0.00    +0.262 C 
ATOM     12  O   LYS A   2       9.289   2.005 -26.097  1.00  0.00    -0.271 OA
ATOM     13  CB  LYS A   2      10.004  -0.711 -27.433  1.00  0.00    +0.031 C 
ATOM     14  CG  LYS A   2      10.492  -2.134 -27.651  1.00  0.00    +0.009 C 
ATOM     15  CD  LYS A   2      11.997  -2.190 -27.854  1.00  0.00    +0.049 C 
ATOM     16  CE  LYS A   2      12.402  -3.414 -28.541  1.00  0.00    +0.096 C 
ATOM     17  NZ  LYS A   2      13.461  -3.520 -29.339  1.00  0.00    -0.151 NA
ATOM     18  N   GLN A   3      11.480   1.693 -25.701  1.00  0.00    -0.196 N 
ATOM     19  CA  GLN A   3      12.077   2.744 -26.521  1.00  0.00    +0.176 C 
ATOM     20  C   GLN A   3      12.476   2.213 -27.887  1.00  0.00    +0.261 C 
ATOM     21  O   GLN A   3      13.193   1.219 -27.985  1.00  0.00    -0.271 OA
ATOM     22  CB  GLN A   3      13.293   3.343 -25.834  1.00  0.00    +0.070 C 
ATOM     23  CG  GLN A   3      13.563   4.789 -26.213  1.00  0.00    +0.195 C 
ATOM     24  CD  GLN A   3      14.583   5.457 -25.304  1.00  0.00    +0.257 C 
ATOM     25  OE1 GLN A   3      15.594   4.846 -24.928  1.00  0.00    -0.272 OA
ATOM     26  NE2 GLN A   3      14.326   6.710 -24.944  1.00  0.00    -0.254 N 
ATOM     27  N   ALA A   4      12.007   2.872 -28.943  1.00  0.00    -0.202 N 
ATOM     28  CA  ALA A   4      12.877   3.714 -29.759  1.00  0.00    +0.139 C 
ATOM     29  C   ALA A   4      13.534   4.798 -28.919  1.00  0.00    +0.210 C 
ATOM     30  O   ALA A   4      12.974   5.239 -27.918  1.00  0.00    -0.331 OA
ATOM     31  CB  ALA A   4      12.096   4.357 -30.894  1.00  0.00    +0.028 C 
ATOM     32  N   VAL A   5      14.726   5.226 -29.326  1.00  0.00    -0.183 NA
ATOM     33  CA  VAL A   5      15.096   6.635 -29.237  1.00  0.00    +0.153 C 
ATOM     34  C   VAL A   5      14.838   7.320 -30.569  1.00  0.00    +0.258 C 
ATOM     35  O   VAL A   5      15.275   6.839 -31.614  1.00  0.00    -0.272 OA
ATOM     36  CB  VAL A   5      16.556   6.816 -28.851  1.00  0.00    +0.025 C 
ATOM     37  CG1 VAL A   5      17.075   5.584 -28.110  1.00  0.00    +0.002 C 
ATOM     38  CG2 VAL A   5      17.416   7.012 -30.097  1.00  0.00    +0.002 C 
ATOM     39  N   ASN A   6      14.127   8.443 -30.535  1.00  0.00    -0.196 N 
ATOM     40  CA  ASN A   6      13.256   8.828 -31.642  1.00  0.00    +0.182 C 
ATOM     41  C   ASN A   6      14.030   9.549 -32.733  1.00  0.00    +0.262 C 
ATOM     42  O   ASN A   6      13.576   9.628 -33.874  1.00  0.00    -0.271 OA
ATOM     43  CB  ASN A   6      12.118   9.711 -31.158  1.00  0.00    +0.120 C 
ATOM     44  CG  ASN A   6      11.107   8.952 -30.315  1.00  0.00    +0.263 C 
ATOM     45  OD1 ASN A   6      10.726   7.830 -30.644  1.00  0.00    -0.272 OA
ATOM     46  ND2 ASN A   6      10.667   9.567 -29.220  1.00  0.00    -0.088 N 
ATOM     47  N   ALA A   7      15.200  10.078 -32.385  1.00  0.00    -0.192 N 
ATOM     48  CA  ALA A   7      15.301  11.454 -31.909  1.00  0.00    +0.215 C 
ATOM     49  C   ALA A   7      14.839  12.436 -32.974  1.00  0.00    +0.266 C 
ATOM     50  O   ALA A   7      14.818  12.108 -34.158  1.00  0.00    -0.271 OA
ATOM     51  CB  ALA A   7      16.728  11.783 -31.502  1.00  0.00    +0.208 C 
ATOM     52  N   LEU A   8      14.465  13.641 -32.552  1.00  0.00    -0.196 N 
ATOM     53  CA  LEU A   8      14.670  14.831 -33.373  1.00  0.00    +0.173 C 
ATOM     54  C   LEU A   8      16.114  15.300 -33.298  1.00  0.00    +0.261 C 
ATOM     55  O   LEU A   8      16.657  15.810 -34.276  1.00  0.00    -0.271 OA
ATOM     56  CB  LEU A   8      13.748  15.956 -32.931  1.00  0.00    +0.031 C 
ATOM     57  CG  LEU A   8      12.489  16.166 -33.776  1.00  0.00    +0.002 C 
ATOM     58  CD1 LEU A   8      12.167  14.901 -34.564  1.00  0.00    +0.000 C 
ATOM     59  CD2 LEU A   8      12.780  17.100 -34.946  1.00  0.00    +0.000 C 
ATOM     60  N   LEU A   9      16.737  15.127 -32.134  1.00  0.00    -0.202 N 
ATOM     61  CA  LEU A   9      17.905  14.258 -32.019  1.00  0.00    +0.138 C 
ATOM     62  C   LEU A   9      17.505  12.877 -31.522  1.00  0.00    +0.200 C 
ATOM     63  O   LEU A   9      18.278  11.928 -31.624  1.00  0.00    -0.324 OA
ATOM     64  CB  LEU A   9      18.934  14.859 -31.076  1.00  0.00    +0.026 C 
ATOM     65  CG  LEU A   9      20.051  15.674 -31.731  1.00  0.00    +0.002 C 
ATOM     66  CD1 LEU A   9      21.407  15.249 -31.181  1.00  0.00    +0.000 C 
ATOM     67  CD2 LEU A   9      20.034  17.111 -31.223  1.00  0.00    +0.000 C 
ATOM     68  N   VAL A  10      16.296  12.767 -30.980  1.00  0.00    -0.218 NA
ATOM     69  CA  VAL A  10      16.123  12.488 -29.556  1.00  0.00    +0.140 C 
ATOM     70  C   VAL A  10      16.521  11.051 -29.263  1.00  0.00    +0.256 C 
ATOM     71  O   VAL A  10      16.029  10.123 -29.903  1.00  0.00    -0.272 OA
ATOM     72  CB  VAL A  10      14.692  12.721 -29.102  1.00  0.00    +0.024 C 
ATOM     73  CG1 VAL A  10      14.582  12.610 -27.583  1.00  0.00    +0.002 C 
ATOM     74  CG2 VAL A  10      14.224  14.117 -29.508  1.00  0.00    +0.002 C 
ATOM     75  N   PHE A  11      17.414  10.865 -28.295  1.00  0.00    -0.196 N 
ATOM     76  CA  PHE A  11      17.448   9.629 -27.518  1.00  0.00    +0.177 C 
ATOM     77  C   PHE A  11      16.508   9.715 -26.327  1.00  0.00    +0.262 C 
ATOM     78  O   PHE A  11      16.222  10.805 -25.833  1.00  0.00    -0.271 OA
ATOM     79  CB  PHE A  11      18.857   9.332 -27.033  1.00  0.00    +0.057 C 
ATOM     80  CG  PHE A  11      19.754   8.756 -28.089  1.00  0.00    -0.020 A 
ATOM     81  CD1 PHE A  11      20.546   9.597 -28.862  1.00  0.00    -0.004 A 
ATOM     82  CE1 PHE A  11      21.376   9.063 -29.841  1.00  0.00    -0.000 A 
ATOM     83  CD2 PHE A  11      19.793   7.381 -28.293  1.00  0.00    -0.004 A 
ATOM     84  CE2 PHE A  11      20.624   6.848 -29.272  1.00  0.00    -0.000 A 
ATOM     85  CZ  PHE A  11      21.416   7.688 -30.045  1.00  0.00    -0.000 A 
ATOM     86  N   PHE A  12      16.023   8.566 -25.866  1.00  0.00    -0.195 N 
ATOM     87  CA  PHE A  12      15.421   8.473 -24.539  1.00  0.00    +0.193 C 
ATOM     88  C   PHE A  12      16.488   8.254 -23.477  1.00  0.00    +0.263 C 
ATOM     89  O   PHE A  12      16.531   8.971 -22.479  1.00  0.00    -0.271 OA
ATOM     90  CB  PHE A  12      14.408   7.342 -24.481  1.00  0.00    +0.129 C 
ATOM     91  CG  PHE A  12      13.224   7.541 -25.379  1.00  0.00    +0.054 A 
ATOM     92  CD1 PHE A  12      13.402   7.630 -26.755  1.00  0.00    +0.015 A 
ATOM     93  CE1 PHE A  12      12.303   7.816 -27.587  1.00  0.00    +0.001 A 
ATOM     94  CD2 PHE A  12      11.948   7.636 -24.837  1.00  0.00    +0.015 A 
ATOM     95  CE2 PHE A  12      10.849   7.821 -25.668  1.00  0.00    +0.001 A 
ATOM     96  CZ  PHE A  12      11.028   7.910 -27.044  1.00  0.00    +0.000 A 
ATOM     97  N   ALA A  13      17.348   7.263 -23.693  1.00  0.00    -0.196 N 
ATOM     98  CA  ALA A  13      17.606   6.248 -22.677  1.00  0.00    +0.173 C 
ATOM     99  C   ALA A  13      18.183   6.869 -21.415  1.00  0.00    +0.262 C 
ATOM    100  O   ALA A  13      18.102   6.281 -20.337  1.00  0.00    -0.271 OA
ATOM    101  CB  ALA A  13      18.561   5.188 -23.204  1.00  0.00    +0.033 C 
ATOM    102  N   GLY A  14      18.763   8.057 -21.548  1.00  0.00    -0.194 N 
ATOM    103  CA  GLY A  14      20.181   8.247 -21.258  1.00  0.00    +0.201 C 
ATOM    104  C   GLY A  14      20.411   8.434 -19.768  1.00  0.00    +0.264 C 
ATOM    105  O   GLY A  14      19.692   7.864 -18.948  1.00  0.00    -0.271 OA
ATOM    106  N   SER A  15      21.413   9.234 -19.414  1.00  0.00    -0.194 N 
ATOM    107  CA  SER A  15      21.936   9.243 -18.051  1.00  0.00    +0.205 C 
ATOM    108  C   SER A  15      21.091  10.123 -17.143  1.00  0.00    +0.264 C 
ATOM    109  O   SER A  15      21.273  10.117 -15.926  1.00  0.00    -0.271 OA
ATOM    110  CB  SER A  15      23.376   9.727 -18.032  1.00  0.00    +0.213 C 
ATOM    111  OG  SER A  15      23.488  10.996 -18.652  1.00  0.00    -0.218 OA
ATOM    112  N   SER A  16      20.171  10.880 -17.732  1.00  0.00    -0.194 N 
ATOM    113  CA  SER A  16      20.224  12.337 -17.659  1.00  0.00    +0.205 C 
ATOM    114  C   SER A  16      20.494  12.807 -16.238  1.00  0.00    +0.264 C 
ATOM    115  O   SER A  16      20.053  12.177 -15.278  1.00  0.00    -0.271 OA
ATOM    116  CB  SER A  16      18.923  12.946 -18.157  1.00  0.00    +0.213 C 
ATOM    117  OG  SER A  16      18.177  13.487 -17.080  1.00  0.00    -0.218 OA
ATOM    118  N   ASP A  17      21.217  13.914 -16.103  1.00  0.00    -0.196 N 
ATOM    119  CA  ASP A  17      22.609  13.971 -16.542  1.00  0.00    +0.184 C 
ATOM    120  C   ASP A  17      23.539  13.409 -15.480  1.00  0.00    +0.262 C 
ATOM    121  O   ASP A  17      24.683  13.062 -15.771  1.00  0.00    -0.271 OA
ATOM    122  CB  ASP A  17      23.017  15.397 -16.870  1.00  0.00    +0.145 C 
ATOM    123  CG  ASP A  17      21.962  16.422 -16.484  1.00  0.00    +0.367 C 
ATOM    124  OD1 ASP A  17      20.828  16.029 -16.134  1.00  0.00    -0.246 OA
ATOM    125  OD2 ASP A  17      22.270  17.633 -16.530  1.00  0.00    -0.246 OA
ATOM    126  N   ALA A  18      23.051  13.318 -14.245  1.00  0.00    -0.196 N 
ATOM    127  CA  ALA A  18      23.412  14.284 -13.213  1.00  0.00    +0.173 C 
ATOM    128  C   ALA A  18      24.497  13.731 -12.303  1.00  0.00    +0.262 C 
ATOM    129  O   ALA A  18      24.477  12.552 -11.951  1.00  0.00    -0.271 OA
ATOM    130  CB  ALA A  18      22.197  14.662 -12.380  1.00  0.00    +0.033 C 
ATOM    131  N   ILE A  19      25.447  14.581 -11.922  1.00  0.00    -0.196 N 
ATOM    132  CA  ILE A  19      26.115  14.443 -10.632  1.00  0.00    +0.173 C 
ATOM    133  C   ILE A  19      25.832  15.665  -9.774  1.00  0.00    +0.262 C 
ATOM    134  O   ILE A  19      25.637  16.762 -10.293  1.00  0.00    -0.271 OA
ATOM    135  CB  ILE A  19      27.618  14.270 -10.787  1.00  0.00    +0.029 C 
ATOM    136  CG1 ILE A  19      27.934  13.253 -11.883  1.00  0.00    +0.002 C 
ATOM    137  CG2 ILE A  19      28.239  13.805  -9.471  1.00  0.00    +0.002 C 
ATOM    138  CD1 ILE A  19      28.628  13.849 -13.096  1.00  0.00    +0.000 C 
ATOM    139  N   ARG A  20      25.809  15.476  -8.457  1.00  0.00    -0.196 N 
ATOM    140  CA  ARG A  20      26.285  16.502  -7.534  1.00  0.00    +0.173 C 
ATOM    141  C   ARG A  20      27.799  16.621  -7.585  1.00  0.00    +0.262 C 
ATOM    142  O   ARG A  20      28.508  15.619  -7.499  1.00  0.00    -0.271 OA
ATOM    143  CB  ARG A  20      25.848  16.196  -6.111  1.00  0.00    +0.033 C 
ATOM    144  CG  ARG A  20      26.210  17.282  -5.111  1.00  0.00    +0.029 C 
ATOM    145  CD  ARG A  20      25.572  17.034  -3.753  1.00  0.00    +0.129 C 
ATOM    146  NE  ARG A  20      25.475  18.262  -2.970  1.00  0.00    -0.234 NA
ATOM    147  CZ  ARG A  20      26.387  18.680  -2.097  1.00  0.00    +0.284 C 
ATOM    148  NH1 ARG A  20      27.543  18.034  -1.964  1.00  0.00    -0.104 N 
ATOM    149  NH2 ARG A  20      26.141  19.753  -1.351  1.00  0.00    -0.104 N 
ATOM    150  N   ARG A  21      28.297  17.846  -7.724  1.00  0.00    -0.194 N 
ATOM    151  CA  ARG A  21      29.729  18.104  -7.601  1.00  0.00    +0.198 C 
ATOM    152  C   ARG A  21      30.105  18.415  -6.162  1.00  0.00    +0.384 C 
ATOM    153  O   ARG A  21      31.273  18.648  -5.857  1.00  0.00    -0.244 OA
ATOM    154  CB  ARG A  21      30.151  19.257  -8.496  1.00  0.00    +0.035 C 
ATOM    155  CG  ARG A  21      30.089  18.938  -9.981  1.00  0.00    +0.029 C 
ATOM    156  CD  ARG A  21      30.511  20.125 -10.832  1.00  0.00    +0.129 C 
ATOM    157  NE  ARG A  21      29.363  20.927 -11.244  1.00  0.00    -0.234 NA
ATOM    158  CZ  ARG A  21      29.432  22.004 -12.022  1.00  0.00    +0.284 C 
ATOM    159  NH1 ARG A  21      30.607  22.543 -12.335  1.00  0.00    -0.104 N 
ATOM    160  NH2 ARG A  21      28.313  22.547 -12.493  1.00  0.00    -0.104 N 
ATOM    161  OXT ARG A  21      29.245  18.438  -5.282  1.00  0.00    -0.244 OA
ATOM    162  H   MET A   1       6.968  -3.342 -22.303  1.00  0.00    +0.000 HD
ATOM    163  H   MET A   1       8.448  -2.699 -21.888  1.00  0.00    +0.000 HD
ATOM    164  H   LYS A   2       7.976  -0.429 -25.630  1.00  0.00    +0.000 HD
ATOM    165  H   LYS A   2      14.036  -2.736 -29.500  1.00  0.00    +0.000 HD
ATOM    166  H   GLN A   3      12.002   1.302 -24.963  1.00  0.00    +0.000 HD
ATOM    167  H   ALA A   4      11.055   2.791 -29.179  1.00  0.00    +0.000 HD
ATOM    168  H   VAL A   5      14.804   4.969 -30.309  1.00  0.00    +0.000 HD
ATOM    169  H   ASN A   6      14.190   9.027 -29.745  1.00  0.00    +0.000 HD
ATOM    170  H   ASN A   6      10.011   9.123 -28.636  1.00  0.00    +0.000 HD
ATOM    171  H   ASN A   6      10.998  10.466 -28.995  1.00  0.00    +0.000 HD
ATOM    172  H   ALA A   7      16.015   9.529 -32.450  1.00  0.00    +0.000 HD
ATOM    173  H   LEU A   8      14.042  13.732 -31.668  1.00  0.00    +0.000 HD
ATOM    174  H   LEU A   9      16.404  15.595 -31.335  1.00  0.00    +0.000 HD
ATOM    175  H   PHE A  11      18.065  11.577 -28.097  1.00  0.00    +0.000 HD
ATOM    176  H   PHE A  12      16.071   7.761 -26.432  1.00  0.00    +0.000 HD
ATOM    177  H   ALA A  13      17.821   7.214 -24.556  1.00  0.00    +0.000 HD
ATOM    178  H   GLY A  14      18.226   8.825 -21.847  1.00  0.00    +0.000 HD
ATOM    179  H   SER A  15      21.811   9.833 -20.086  1.00  0.00    +0.000 HD
ATOM    180  H   SER A  15      23.201  10.931 -19.576  1.00  0.00    +0.000 HD
ATOM    181  H   SER A  16      19.438  10.449 -18.230  1.00  0.00    +0.000 HD
ATOM    182  H   SER A  16      18.693  14.184 -16.646  1.00  0.00    +0.000 HD
ATOM    183  H   ASP A  17      20.807  14.712 -15.699  1.00  0.00    +0.000 HD
ATOM    184  H   ASP A  17      23.131  17.887 -16.798  1.00  0.00    +0.000 HD
ATOM    185  H   ALA A  18      22.433  12.584 -14.024  1.00  0.00    +0.000 HD
ATOM    186  H   ILE A  19      25.704  15.318 -12.522  1.00  0.00    +0.000 HD
ATOM    187  H   ARG A  20      25.463  14.627  -8.098  1.00  0.00    +0.000 HD
ATOM    188  H   ARG A  20      27.729  17.239  -2.514  1.00  0.00    +0.000 HD
ATOM    189  H   ARG A  20      28.213  18.352  -1.316  1.00  0.00    +0.000 HD
ATOM    190  H   ARG A  20      25.287  20.232  -1.447  1.00  0.00    +0.000 HD
ATOM    191  H   ARG A  20      26.814  20.067  -0.704  1.00  0.00    +0.000 HD
ATOM    192  H   ARG A  21      27.687  18.595  -7.913  1.00  0.00    +0.000 HD
ATOM    193  H   ARG A  21      31.939  18.635  -6.514  1.00  0.00    +0.000 HD
ATOM    194  H   ARG A  21      30.646  23.339 -12.911  1.00  0.00    +0.000 HD
ATOM    195  H   ARG A  21      31.438  22.144 -11.989  1.00  0.00    +0.000 HD
ATOM    196  H   ARG A  21      27.441  22.153 -12.265  1.00  0.00    +0.000 HD
ATOM    197  H   ARG A  21      28.358  23.343 -13.071  1.00  0.00    +0.000 HD
ENDROOT
TORSDOF 0
