REMARK  Name = /var/folders/yp/yjbh3p597675h2qddgqr02y00000gn/T/tmp0le83xyh.pdb
REMARK     285 UNITARY VALUES FOR THE UNIT CELL AUTOMATICALLY SET
REMARK     285 BY MDANALYSIS PDBWRITER BECAUSE UNIT CELL INFORMATION
REMARK     285 WAS MISSING.
REMARK     285 PROTEIN DATA BANK CONVENTIONS REQUIRE THAT
REMARK     285 CRYST1 RECORD IS INCLUDED, BUT THE VALUES ON
REMARK     285 THIS RECORD ARE MEANINGLESS.
REMARK     285 UNITARY VALUES FOR THE UNIT CELL AUTOMATICALLY SET
REMARK     285 BY MDANALYSIS PDBWRITER BECAUSE UNIT CELL INFORMATION
REMARK     285 WAS MISSING.
REMARK     285 PROTEIN DATA BANK CONVENTIONS REQUIRE THAT
REMARK     285 CRYST1 RECORD IS INCLUDED, BUT THE VALUES ON
REMARK     285 THIS RECORD ARE MEANINGLESS.
REMARK                            x       y       z     vdW  Elec       q    Type
REMARK                         _______ _______ _______ _____ _____    ______ ____
REMARK  Name = /var/folders/yp/yjbh3p597675h2qddgqr02y00000gn/T/tmp0le83xyh.pdb
REMARK     285 UNITARY VALUES FOR THE UNIT CELL AUTOMATICALLY SET
REMARK     285 BY MDANALYSIS PDBWRITER BECAUSE UNIT CELL INFORMATION
REMARK     285 WAS MISSING.
REMARK     285 PROTEIN DATA BANK CONVENTIONS REQUIRE THAT
REMARK     285 CRYST1 RECORD IS INCLUDED, BUT THE VALUES ON
REMARK     285 THIS RECORD ARE MEANINGLESS.
REMARK     285 UNITARY VALUES FOR THE UNIT CELL AUTOMATICALLY SET
REMARK     285 BY MDANALYSIS PDBWRITER BECAUSE UNIT CELL INFORMATION
REMARK     285 WAS MISSING.
REMARK     285 PROTEIN DATA BANK CONVENTIONS REQUIRE THAT
REMARK     285 CRYST1 RECORD IS INCLUDED, BUT THE VALUES ON
REMARK     285 THIS RECORD ARE MEANINGLESS.
REMARK                            x       y       z     vdW  Elec       q    Type
REMARK                         _______ _______ _______ _____ _____    ______ ____
REMARK  Name = /var/folders/yp/yjbh3p597675h2qddgqr02y00000gn/T/tmp0le83xyh.pdb
REMARK     285 UNITARY VALUES FOR THE UNIT CELL AUTOMATICALLY SET
REMARK     285 BY MDANALYSIS PDBWRITER BECAUSE UNIT CELL INFORMATION
REMARK     285 WAS MISSING.
REMARK     285 PROTEIN DATA BANK CONVENTIONS REQUIRE THAT
REMARK     285 CRYST1 RECORD IS INCLUDED, BUT THE VALUES ON
REMARK     285 THIS RECORD ARE MEANINGLESS.
REMARK     285 UNITARY VALUES FOR THE UNIT CELL AUTOMATICALLY SET
REMARK     285 BY MDANALYSIS PDBWRITER BECAUSE UNIT CELL INFORMATION
REMARK     285 WAS MISSING.
REMARK     285 PROTEIN DATA BANK CONVENTIONS REQUIRE THAT
REMARK     285 CRYST1 RECORD IS INCLUDED, BUT THE VALUES ON
REMARK     285 THIS RECORD ARE MEANINGLESS.
REMARK                            x       y       z     vdW  Elec       q    Type
REMARK                         _______ _______ _______ _____ _____    ______ ____
ROOT
ATOM      1  N   MET A   1      25.732  15.345   3.117  1.00  0.00    -0.123 NA
ATOM      2  CA  MET A   1      24.285  15.164   3.205  1.00  0.00    +0.170 C 
ATOM      3  C   MET A   1      23.777  14.291   2.070  1.00  0.00    +0.259 C 
ATOM      4  O   MET A   1      24.215  14.432   0.929  1.00  0.00    -0.272 OA
ATOM      5  CB  MET A   1      23.569  16.504   3.174  1.00  0.00    +0.040 C 
ATOM      6  CG  MET A   1      23.733  17.254   1.863  1.00  0.00    +0.060 C 
ATOM      7  SD  MET A   1      22.490  16.789   0.632  1.00  0.00    -0.139 S 
ATOM      8  CE  MET A   1      22.100  18.390  -0.065  1.00  0.00    +0.069 C 
ATOM      9  N   LYS A   2      22.852  13.388   2.381  1.00  0.00    -0.197 N 
ATOM     10  CA  LYS A   2      22.461  12.346   1.436  1.00  0.00    +0.173 C 
ATOM     11  C   LYS A   2      21.708  12.933   0.253  1.00  0.00    +0.262 C 
ATOM     12  O   LYS A   2      20.735  13.663   0.434  1.00  0.00    -0.271 OA
ATOM     13  CB  LYS A   2      21.598  11.295   2.116  1.00  0.00    +0.031 C 
ATOM     14  CG  LYS A   2      21.298  10.086   1.245  1.00  0.00    +0.009 C 
ATOM     15  CD  LYS A   2      19.929  10.187   0.592  1.00  0.00    +0.049 C 
ATOM     16  CE  LYS A   2      19.856  11.312  -0.337  1.00  0.00    +0.096 C 
ATOM     17  NZ  LYS A   2      18.730  11.909  -0.717  1.00  0.00    -0.151 NA
ATOM     18  N   GLN A   3      22.157  12.614  -0.957  1.00  0.00    -0.196 N 
ATOM     19  CA  GLN A   3      21.408  11.719  -1.834  1.00  0.00    +0.173 C 
ATOM     20  C   GLN A   3      21.760  10.266  -1.563  1.00  0.00    +0.262 C 
ATOM     21  O   GLN A   3      22.924   9.877  -1.654  1.00  0.00    -0.271 OA
ATOM     22  CB  GLN A   3      21.678  12.042  -3.296  1.00  0.00    +0.031 C 
ATOM     23  CG  GLN A   3      20.608  11.527  -4.244  1.00  0.00    +0.002 C 
ATOM     24  N   ALA A   4      20.756   9.463  -1.227  1.00  0.00    -0.196 N 
ATOM     25  CA  ALA A   4      20.723   8.066  -1.653  1.00  0.00    +0.173 C 
ATOM     26  C   ALA A   4      20.548   7.958  -3.159  1.00  0.00    +0.262 C 
ATOM     27  O   ALA A   4      19.908   8.807  -3.777  1.00  0.00    -0.271 OA
ATOM     28  CB  ALA A   4      19.600   7.316  -0.957  1.00  0.00    +0.033 C 
ATOM     29  N   VAL A   5      21.117   6.913  -3.752  1.00  0.00    -0.196 N 
ATOM     30  CA  VAL A   5      22.268   7.073  -4.637  1.00  0.00    +0.173 C 
ATOM     31  C   VAL A   5      21.806   7.077  -6.085  1.00  0.00    +0.262 C 
ATOM     32  O   VAL A   5      21.113   6.159  -6.521  1.00  0.00    -0.271 OA
ATOM     33  CB  VAL A   5      23.296   5.973  -4.435  1.00  0.00    +0.029 C 
ATOM     34  CG1 VAL A   5      24.695   6.465  -4.803  1.00  0.00    +0.002 C 
ATOM     35  CG2 VAL A   5      23.322   5.529  -2.974  1.00  0.00    +0.002 C 
ATOM     36  N   ASN A   6      22.189   8.109  -6.832  1.00  0.00    -0.196 N 
ATOM     37  CA  ASN A   6      21.380   8.580  -7.951  1.00  0.00    +0.173 C 
ATOM     38  C   ASN A   6      21.694   7.813  -9.225  1.00  0.00    +0.262 C 
ATOM     39  O   ASN A   6      20.945   7.887 -10.198  1.00  0.00    -0.271 OA
ATOM     40  CB  ASN A   6      21.592  10.066  -8.188  1.00  0.00    +0.033 C 
ATOM     41  N   ALA A   7      22.800   7.074  -9.221  1.00  0.00    -0.196 N 
ATOM     42  CA  ALA A   7      24.084   7.624  -9.645  1.00  0.00    +0.173 C 
ATOM     43  C   ALA A   7      23.986   8.234 -11.033  1.00  0.00    +0.262 C 
ATOM     44  O   ALA A   7      23.135   7.837 -11.830  1.00  0.00    -0.271 OA
ATOM     45  CB  ALA A   7      25.161   6.553  -9.635  1.00  0.00    +0.033 C 
ATOM     46  N   LEU A   8      24.855   9.198 -11.325  1.00  0.00    -0.196 N 
ATOM     47  CA  LEU A   8      25.707   9.790 -10.298  1.00  0.00    +0.173 C 
ATOM     48  C   LEU A   8      25.086  11.065  -9.749  1.00  0.00    +0.262 C 
ATOM     49  O   LEU A   8      25.435  11.508  -8.656  1.00  0.00    -0.271 OA
ATOM     50  CB  LEU A   8      27.087  10.095 -10.854  1.00  0.00    +0.031 C 
ATOM     51  CG  LEU A   8      28.012   8.894 -11.058  1.00  0.00    +0.002 C 
ATOM     52  CD1 LEU A   8      29.459   9.288 -10.782  1.00  0.00    +0.000 C 
ATOM     53  CD2 LEU A   8      28.139   8.561 -12.539  1.00  0.00    +0.000 C 
ATOM     54  N   LEU A   9      24.165  11.653 -10.506  1.00  0.00    -0.196 N 
ATOM     55  CA  LEU A   9      24.297  13.048 -10.920  1.00  0.00    +0.173 C 
ATOM     56  C   LEU A   9      23.777  13.984  -9.843  1.00  0.00    +0.262 C 
ATOM     57  O   LEU A   9      24.225  15.125  -9.736  1.00  0.00    -0.271 OA
ATOM     58  CB  LEU A   9      23.546  13.298 -12.217  1.00  0.00    +0.031 C 
ATOM     59  CG  LEU A   9      24.222  14.242 -13.215  1.00  0.00    +0.002 C 
ATOM     60  CD1 LEU A   9      23.780  13.912 -14.635  1.00  0.00    +0.000 C 
ATOM     61  CD2 LEU A   9      25.704  13.907 -13.350  1.00  0.00    +0.000 C 
ATOM     62  N   VAL A  10      22.830  13.505  -9.042  1.00  0.00    -0.196 N 
ATOM     63  CA  VAL A  10      21.692  14.324  -8.634  1.00  0.00    +0.173 C 
ATOM     64  C   VAL A  10      21.978  14.966  -7.287  1.00  0.00    +0.262 C 
ATOM     65  O   VAL A  10      22.307  14.278  -6.323  1.00  0.00    -0.271 OA
ATOM     66  CB  VAL A  10      20.412  13.510  -8.547  1.00  0.00    +0.029 C 
ATOM     67  CG1 VAL A  10      19.208  14.422  -8.315  1.00  0.00    +0.002 C 
ATOM     68  CG2 VAL A  10      20.177  12.742  -9.845  1.00  0.00    +0.002 C 
ATOM     69  N   PHE A  11      21.852  16.289  -7.218  1.00  0.00    -0.196 N 
ATOM     70  CA  PHE A  11      21.303  16.940  -6.033  1.00  0.00    +0.177 C 
ATOM     71  C   PHE A  11      19.789  16.794  -5.992  1.00  0.00    +0.262 C 
ATOM     72  O   PHE A  11      19.095  17.220  -6.913  1.00  0.00    -0.271 OA
ATOM     73  CB  PHE A  11      21.671  18.415  -6.004  1.00  0.00    +0.057 C 
ATOM     74  CG  PHE A  11      20.595  19.297  -5.445  1.00  0.00    -0.020 A 
ATOM     75  CD1 PHE A  11      20.807  19.983  -4.254  1.00  0.00    -0.004 A 
ATOM     76  CE1 PHE A  11      19.811  20.801  -3.736  1.00  0.00    -0.000 A 
ATOM     77  CD2 PHE A  11      19.385  19.429  -6.117  1.00  0.00    -0.004 A 
ATOM     78  CE2 PHE A  11      18.388  20.247  -5.599  1.00  0.00    -0.000 A 
ATOM     79  CZ  PHE A  11      18.601  20.933  -4.409  1.00  0.00    -0.000 A 
ATOM     80  N   PHE A  12      19.278  16.193  -4.921  1.00  0.00    -0.196 N 
ATOM     81  CA  PHE A  12      17.979  16.582  -4.380  1.00  0.00    +0.177 C 
ATOM     82  C   PHE A  12      18.145  17.569  -3.236  1.00  0.00    +0.262 C 
ATOM     83  O   PHE A  12      17.528  18.633  -3.237  1.00  0.00    -0.271 OA
ATOM     84  CB  PHE A  12      17.209  15.364  -3.892  1.00  0.00    +0.057 C 
ATOM     85  CG  PHE A  12      16.951  15.365  -2.414  1.00  0.00    -0.022 A 
ATOM     86  CD1 PHE A  12      18.015  15.282  -1.523  1.00  0.00    -0.000 A 
ATOM     87  CE1 PHE A  12      17.776  15.282  -0.153  1.00  0.00    -0.003 A 
ATOM     88  CD2 PHE A  12      15.649  15.448  -1.935  1.00  0.00    -0.004 A 
ATOM     89  CE2 PHE A  12      15.409  15.449  -0.566  1.00  0.00    -0.000 A 
ATOM     90  CZ  PHE A  12      16.474  15.365   0.326  1.00  0.00    -0.000 A 
ATOM     91  N   ALA A  13      18.978  17.218  -2.260  1.00  0.00    -0.194 N 
ATOM     92  CA  ALA A  13      18.486  16.865  -0.932  1.00  0.00    +0.167 C 
ATOM     93  C   ALA A  13      17.992  18.096  -0.188  1.00  0.00    +0.263 C 
ATOM     94  O   ALA A  13      17.094  18.000   0.648  1.00  0.00    -0.271 OA
ATOM     95  CB  ALA A  13      19.572  16.183  -0.118  1.00  0.00    +0.036 C 
ATOM     96  N   GLY A  14      18.575  19.251  -0.490  1.00  0.00    -0.194 N 
ATOM     97  CA  GLY A  14      19.732  19.309  -1.379  1.00  0.00    +0.201 C 
ATOM     98  C   GLY A  14      20.562  20.554  -1.108  1.00  0.00    +0.264 C 
ATOM     99  O   GLY A  14      20.666  20.998   0.035  1.00  0.00    -0.271 OA
ATOM    100  N   SER A  15      21.151  21.118  -2.158  1.00  0.00    -0.194 N 
ATOM    101  CA  SER A  15      22.020  22.282  -2.008  1.00  0.00    +0.205 C 
ATOM    102  C   SER A  15      21.211  23.546  -1.765  1.00  0.00    +0.264 C 
ATOM    103  O   SER A  15      20.135  23.718  -2.335  1.00  0.00    -0.271 OA
ATOM    104  CB  SER A  15      22.889  22.465  -3.241  1.00  0.00    +0.213 C 
ATOM    105  OG  SER A  15      22.122  22.948  -4.330  1.00  0.00    -0.218 OA
ATOM    106  N   SER A  16      21.728  24.430  -0.917  1.00  0.00    -0.194 N 
ATOM    107  CA  SER A  16      21.366  25.844  -0.979  1.00  0.00    +0.205 C 
ATOM    108  C   SER A  16      21.753  26.454  -2.316  1.00  0.00    +0.264 C 
ATOM    109  O   SER A  16      22.865  26.246  -2.799  1.00  0.00    -0.271 OA
ATOM    110  CB  SER A  16      22.035  26.618   0.145  1.00  0.00    +0.213 C 
ATOM    111  OG  SER A  16      23.396  26.868  -0.157  1.00  0.00    -0.218 OA
ATOM    112  N   ASP A  17      20.836  27.210  -2.914  1.00  0.00    -0.196 N 
ATOM    113  CA  ASP A  17      21.105  28.603  -3.256  1.00  0.00    +0.184 C 
ATOM    114  C   ASP A  17      20.931  29.505  -2.044  1.00  0.00    +0.262 C 
ATOM    115  O   ASP A  17      21.479  30.606  -2.002  1.00  0.00    -0.271 OA
ATOM    116  CB  ASP A  17      20.189  29.074  -4.374  1.00  0.00    +0.145 C 
ATOM    117  CG  ASP A  17      20.216  28.164  -5.590  1.00  0.00    +0.367 C 
ATOM    118  OD1 ASP A  17      21.222  27.450  -5.795  1.00  0.00    -0.246 OA
ATOM    119  OD2 ASP A  17      19.224  28.160  -6.348  1.00  0.00    -0.246 OA
ATOM    120  N   ALA A  18      20.167  29.041  -1.059  1.00  0.00    -0.196 N 
ATOM    121  CA  ALA A  18      19.811  29.873   0.085  1.00  0.00    +0.173 C 
ATOM    122  C   ALA A  18      19.860  29.077   1.378  1.00  0.00    +0.262 C 
ATOM    123  O   ALA A  18      19.454  27.916   1.412  1.00  0.00    -0.271 OA
ATOM    124  CB  ALA A  18      18.424  30.470  -0.093  1.00  0.00    +0.033 C 
ATOM    125  N   ILE A  19      20.355  29.698   2.445  1.00  0.00    -0.195 N 
ATOM    126  CA  ILE A  19      20.315  29.086   3.769  1.00  0.00    +0.191 C 
ATOM    127  C   ILE A  19      19.490  29.950   4.709  1.00  0.00    +0.263 C 
ATOM    128  O   ILE A  19      19.602  31.176   4.691  1.00  0.00    -0.271 OA
ATOM    129  CB  ILE A  19      21.706  28.892   4.347  1.00  0.00    +0.105 C 
ATOM    130  CG1 ILE A  19      22.493  27.870   3.528  1.00  0.00    +0.022 C 
ATOM    131  CG2 ILE A  19      21.620  28.420   5.796  1.00  0.00    +0.024 C 
ATOM    132  CD1 ILE A  19      23.851  27.522   4.115  1.00  0.00    +0.002 C 
ATOM    133  N   ARG A  20      18.660  29.313   5.531  1.00  0.00    -0.196 N 
ATOM    134  CA  ARG A  20      18.397  29.809   6.879  1.00  0.00    +0.173 C 
ATOM    135  C   ARG A  20      19.582  29.545   7.796  1.00  0.00    +0.262 C 
ATOM    136  O   ARG A  20      19.992  28.400   7.972  1.00  0.00    -0.271 OA
ATOM    137  CB  ARG A  20      17.153  29.161   7.461  1.00  0.00    +0.033 C 
ATOM    138  CG  ARG A  20      16.696  29.778   8.774  1.00  0.00    +0.029 C 
ATOM    139  CD  ARG A  20      15.693  28.892   9.495  1.00  0.00    +0.129 C 
ATOM    140  NE  ARG A  20      15.867  28.951  10.944  1.00  0.00    -0.234 NA
ATOM    141  CZ  ARG A  20      15.312  28.105  11.808  1.00  0.00    +0.284 C 
ATOM    142  NH1 ARG A  20      14.638  27.042  11.380  1.00  0.00    -0.104 N 
ATOM    143  NH2 ARG A  20      15.437  28.326  13.115  1.00  0.00    -0.104 N 
ATOM    144  N   ARG A  21      20.132  30.606   8.379  1.00  0.00    -0.194 N 
ATOM    145  CA  ARG A  21      21.065  30.463   9.492  1.00  0.00    +0.198 C 
ATOM    146  C   ARG A  21      20.383  30.768  10.816  1.00  0.00    +0.384 C 
ATOM    147  O   ARG A  21      19.303  31.357  10.843  1.00  0.00    -0.244 OA
ATOM    148  CB  ARG A  21      22.264  31.380   9.317  1.00  0.00    +0.035 C 
ATOM    149  CG  ARG A  21      23.316  30.840   8.362  1.00  0.00    +0.026 C 
ATOM    150  CD  ARG A  21      22.947  31.097   6.911  1.00  0.00    +0.115 C 
ATOM    151  NE  ARG A  21      23.637  30.182   6.008  1.00  0.00    -0.205 N 
ATOM    152  CZ  ARG A  21      23.346  30.022   4.720  1.00  0.00    +0.241 C 
ATOM    153  NH1 ARG A  21      22.201  29.456   4.349  1.00  0.00    -0.206 N 
ATOM    154  NH2 ARG A  21      24.208  30.434   3.796  1.00  0.00    -0.111 NA
ATOM    155  OXT ARG A  21      20.902  30.430  11.879  1.00  0.00    -0.244 OA
ATOM    156  H   MET A   1      26.049  15.933   3.888  1.00  0.00    +0.000 HD
ATOM    157  H   MET A   1      25.965  15.793   2.231  1.00  0.00    +0.000 HD
ATOM    158  H   LYS A   2      22.421  13.422   3.266  1.00  0.00    +0.000 HD
ATOM    159  H   LYS A   2      17.865  11.597  -0.366  1.00  0.00    +0.000 HD
ATOM    160  H   GLN A   3      23.012  12.990  -1.268  1.00  0.00    +0.000 HD
ATOM    161  H   ALA A   4      20.018   9.817  -0.679  1.00  0.00    +0.000 HD
ATOM    162  H   VAL A   5      20.755   6.012  -3.591  1.00  0.00    +0.000 HD
ATOM    163  H   ASN A   6      23.037   8.565  -6.625  1.00  0.00    +0.000 HD
ATOM    164  H   ALA A   7      22.752   6.136  -8.925  1.00  0.00    +0.000 HD
ATOM    165  H   LEU A   8      24.925   9.519 -12.253  1.00  0.00    +0.000 HD
ATOM    166  H   LEU A   9      23.376  11.138 -10.794  1.00  0.00    +0.000 HD
ATOM    167  H   VAL A  10      22.898  12.579  -8.717  1.00  0.00    +0.000 HD
ATOM    168  H   PHE A  11      22.135  16.839  -7.983  1.00  0.00    +0.000 HD
ATOM    169  H   PHE A  12      19.785  15.470  -4.485  1.00  0.00    +0.000 HD
ATOM    170  H   ALA A  13      19.946  17.195  -2.438  1.00  0.00    +0.000 HD
ATOM    171  H   GLY A  14      18.220  20.085  -0.106  1.00  0.00    +0.000 HD
ATOM    172  H   SER A  15      20.998  20.742  -3.055  1.00  0.00    +0.000 HD
ATOM    173  H   SER A  15      21.737  23.808  -4.098  1.00  0.00    +0.000 HD
ATOM    174  H   SER A  16      22.368  24.126  -0.234  1.00  0.00    +0.000 HD
ATOM    175  H   SER A  16      23.863  26.026  -0.266  1.00  0.00    +0.000 HD
ATOM    176  H   ASP A  17      19.958  26.821  -3.131  1.00  0.00    +0.000 HD
ATOM    177  H   ASP A  17      21.947  27.482  -5.203  1.00  0.00    +0.000 HD
ATOM    178  H   ALA A  18      19.834  28.115  -1.103  1.00  0.00    +0.000 HD
ATOM    179  H   ILE A  19      20.757  30.590   2.338  1.00  0.00    +0.000 HD
ATOM    180  H   ARG A  20      18.214  28.491   5.224  1.00  0.00    +0.000 HD
ATOM    181  H   ARG A  20      14.544  26.875  10.414  1.00  0.00    +0.000 HD
ATOM    182  H   ARG A  20      14.232  26.422  12.028  1.00  0.00    +0.000 HD
ATOM    183  H   ARG A  20      15.029  27.704  13.760  1.00  0.00    +0.000 HD
ATOM    184  H   ARG A  20      15.936  29.111  13.436  1.00  0.00    +0.000 HD
ATOM    185  H   ARG A  21      19.905  31.506   8.053  1.00  0.00    +0.000 HD
ATOM    186  H   ARG A  21      24.372  29.643   6.380  1.00  0.00    +0.000 HD
ATOM    187  H   ARG A  21      21.782  30.134   3.772  1.00  0.00    +0.000 HD
ATOM    188  H   ARG A  21      23.998  30.319   2.840  1.00  0.00    +0.000 HD
ATOM    189  H   ARG A  21      21.725  29.981  11.877  1.00  0.00    +0.000 HD
ATOM      1  CD  GLN A   3      20.781  12.042  -5.663  1.00  0.00    +0.417 C 
ATOM      2  OE1 GLN A   3      20.308  13.135  -6.005  1.00  0.00    -0.165 OA
ATOM      3  NE2 GLN A   3      21.460  11.261  -6.499  1.00  0.00    -0.076 NA
ATOM      4  CG  ASN A   6      20.873  10.930  -7.166  1.00  0.00    +0.164 C 
ATOM      5  OD1 ASN A   6      21.503  11.645  -6.389  1.00  0.00    -0.340 OA
ATOM      6  H   GLN A   3      19.829  13.033  -6.841  1.00  0.00    +0.000 HD
ATOM      1  ND2 ASN A   6      19.544  10.865  -7.165  1.00  0.00    +0.000 NA
ATOM      2  H   ASN A   6      19.400  10.938  -6.158  1.00  0.00    +0.000 HD
ATOM      3  H   ASN A   6      19.757   9.898  -7.409  1.00  0.00    +0.000 HD
ATOM      4  H   ASN A   6      20.321  11.465  -7.442  1.00  0.00    +0.000 HD
ENDROOT
TORSDOF 0
