REMARK  Name = /var/folders/yp/yjbh3p597675h2qddgqr02y00000gn/T/tmp671vljri.pdb
REMARK   1 CREATED WITH OPENMM 8.6.1, 2026-10-07
REMARK                            x       y       z     vdW  Elec       q    Type
REMARK                         _______ _______ _______ _____ _____    ______ ____
ROOT
ATOM      1  N   MET A   1      14.675  -5.627  -1.183  1.00  0.00    -0.123 NA
ATOM      2  CA  MET A   1      15.587  -5.071  -0.160  1.00  0.00    +0.170 C 
ATOM      3  C   MET A   1      15.822  -6.168   0.848  1.00  0.00    +0.259 C 
ATOM      4  O   MET A   1      14.896  -6.916   1.176  1.00  0.00    -0.272 OA
ATOM      5  CB  MET A   1      15.054  -3.819   0.562  1.00  0.00    +0.040 C 
ATOM      6  CG  MET A   1      14.779  -2.636  -0.372  1.00  0.00    +0.060 C 
ATOM      7  SD  MET A   1      13.907  -3.012  -1.924  1.00  0.00    -0.139 S 
ATOM      8  CE  MET A   1      12.294  -3.556  -1.291  1.00  0.00    +0.069 C 
ATOM      9  N   LYS A   2      17.051  -6.285   1.344  1.00  0.00    -0.197 N 
ATOM     10  CA  LYS A   2      17.412  -7.311   2.320  1.00  0.00    +0.173 C 
ATOM     11  C   LYS A   2      17.983  -6.683   3.580  1.00  0.00    +0.262 C 
ATOM     12  O   LYS A   2      18.871  -5.833   3.509  1.00  0.00    -0.271 OA
ATOM     13  CB  LYS A   2      18.409  -8.286   1.685  1.00  0.00    +0.031 C 
ATOM     14  CG  LYS A   2      18.689  -9.499   2.577  1.00  0.00    +0.004 C 
ATOM     15  CD  LYS A   2      19.826 -10.333   1.989  1.00  0.00    +0.021 C 
ATOM     16  CE  LYS A   2      19.770 -11.781   2.459  1.00  0.00    +0.109 C 
ATOM     17  NZ  LYS A   2      18.747 -12.589   1.770  1.00  0.00    -0.131 NA
ATOM     18  N   GLN A   3      17.540  -7.200   4.720  1.00  0.00    -0.196 N 
ATOM     19  CA  GLN A   3      18.454  -7.614   5.780  1.00  0.00    +0.173 C 
ATOM     20  C   GLN A   3      18.217  -9.090   6.098  1.00  0.00    +0.262 C 
ATOM     21  O   GLN A   3      17.075  -9.516   6.288  1.00  0.00    -0.271 OA
ATOM     22  CB  GLN A   3      18.261  -6.779   7.046  1.00  0.00    +0.041 C 
ATOM     23  CG  GLN A   3      18.929  -5.407   6.938  1.00  0.00    +0.091 C 
ATOM     24  CD  GLN A   3      18.555  -4.511   8.109  1.00  0.00    +0.261 C 
ATOM     25  OE1 GLN A   3      17.393  -4.376   8.478  1.00  0.00    -0.272 OA
ATOM     26  NE2 GLN A   3      19.517  -3.855   8.726  1.00  0.00    -0.088 N 
ATOM     27  N   ALA A   4      19.301  -9.855   6.193  1.00  0.00    -0.196 N 
ATOM     28  CA  ALA A   4      19.303 -11.107   6.930  1.00  0.00    +0.173 C 
ATOM     29  C   ALA A   4      20.352 -11.052   8.033  1.00  0.00    +0.262 C 
ATOM     30  O   ALA A   4      21.480 -10.597   7.825  1.00  0.00    -0.271 OA
ATOM     31  CB  ALA A   4      19.553 -12.294   5.999  1.00  0.00    +0.033 C 
ATOM     32  N   VAL A   5      19.984 -11.597   9.185  1.00  0.00    -0.196 N 
ATOM     33  CA  VAL A   5      20.912 -12.380   9.988  1.00  0.00    +0.173 C 
ATOM     34  C   VAL A   5      20.897 -13.826   9.490  1.00  0.00    +0.262 C 
ATOM     35  O   VAL A   5      19.841 -14.387   9.194  1.00  0.00    -0.271 OA
ATOM     36  CB  VAL A   5      20.543 -12.312  11.482  1.00  0.00    +0.029 C 
ATOM     37  CG1 VAL A   5      20.666 -10.885  12.013  1.00  0.00    +0.002 C 
ATOM     38  CG2 VAL A   5      19.145 -12.855  11.779  1.00  0.00    +0.002 C 
ATOM     39  N   ASN A   6      22.071 -14.442   9.454  1.00  0.00    -0.196 N 
ATOM     40  CA  ASN A   6      22.271 -15.695  10.191  1.00  0.00    +0.182 C 
ATOM     41  C   ASN A   6      22.636 -15.418  11.653  1.00  0.00    +0.262 C 
ATOM     42  O   ASN A   6      22.433 -16.271  12.513  1.00  0.00    -0.271 OA
ATOM     43  CB  ASN A   6      23.360 -16.543   9.540  1.00  0.00    +0.120 C 
ATOM     44  CG  ASN A   6      22.971 -17.003   8.161  1.00  0.00    +0.263 C 
ATOM     45  OD1 ASN A   6      22.327 -16.337   7.369  1.00  0.00    -0.272 OA
ATOM     46  ND2 ASN A   6      23.296 -18.211   7.852  1.00  0.00    -0.088 N 
ATOM     47  N   ALA A   7      23.159 -14.233  11.978  1.00  0.00    -0.196 N 
ATOM     48  CA  ALA A   7      24.372 -13.711  11.356  1.00  0.00    +0.173 C 
ATOM     49  C   ALA A   7      25.529 -14.373  12.074  1.00  0.00    +0.262 C 
ATOM     50  O   ALA A   7      25.468 -14.597  13.277  1.00  0.00    -0.271 OA
ATOM     51  CB  ALA A   7      24.476 -12.192  11.476  1.00  0.00    +0.033 C 
ATOM     52  N   LEU A   8      26.549 -14.662  11.300  1.00  0.00    -0.196 N 
ATOM     53  CA  LEU A   8      27.182 -15.959  11.149  1.00  0.00    +0.173 C 
ATOM     54  C   LEU A   8      27.725 -16.527  12.473  1.00  0.00    +0.262 C 
ATOM     55  O   LEU A   8      27.058 -16.552  13.504  1.00  0.00    -0.271 OA
ATOM     56  CB  LEU A   8      28.215 -15.610  10.058  1.00  0.00    +0.031 C 
ATOM     57  CG  LEU A   8      27.904 -16.052   8.641  1.00  0.00    +0.002 C 
ATOM     58  CD1 LEU A   8      29.100 -15.787   7.740  1.00  0.00    +0.000 C 
ATOM     59  CD2 LEU A   8      26.827 -15.090   8.147  1.00  0.00    +0.000 C 
ATOM     60  N   LEU A   9      28.926 -17.089  12.478  1.00  0.00    -0.196 N 
ATOM     61  CA  LEU A   9      29.600 -17.739  11.326  1.00  0.00    +0.173 C 
ATOM     62  C   LEU A   9      28.965 -19.042  10.939  1.00  0.00    +0.262 C 
ATOM     63  O   LEU A   9      29.251 -19.563   9.862  1.00  0.00    -0.271 OA
ATOM     64  CB  LEU A   9      31.106 -17.774  11.546  1.00  0.00    +0.031 C 
ATOM     65  CG  LEU A   9      31.885 -16.811  10.624  1.00  0.00    +0.002 C 
ATOM     66  CD1 LEU A   9      33.367 -17.141  10.728  1.00  0.00    +0.000 C 
ATOM     67  CD2 LEU A   9      31.787 -15.336  11.025  1.00  0.00    +0.000 C 
ATOM     68  N   VAL A  10      28.104 -19.558  11.797  1.00  0.00    -0.196 N 
ATOM     69  CA  VAL A  10      27.940 -20.994  11.900  1.00  0.00    +0.173 C 
ATOM     70  C   VAL A  10      26.682 -21.453  11.210  1.00  0.00    +0.262 C 
ATOM     71  O   VAL A  10      25.657 -20.768  11.252  1.00  0.00    -0.271 OA
ATOM     72  CB  VAL A  10      27.908 -21.421  13.364  1.00  0.00    +0.029 C 
ATOM     73  CG1 VAL A  10      28.219 -22.904  13.451  1.00  0.00    +0.002 C 
ATOM     74  CG2 VAL A  10      28.944 -20.681  14.220  1.00  0.00    +0.002 C 
ATOM     75  N   PHE A  11      26.758 -22.611  10.553  1.00  0.00    -0.196 N 
ATOM     76  CA  PHE A  11      25.591 -23.279   9.988  1.00  0.00    +0.177 C 
ATOM     77  C   PHE A  11      25.513 -24.686  10.553  1.00  0.00    +0.262 C 
ATOM     78  O   PHE A  11      26.021 -25.636   9.957  1.00  0.00    -0.271 OA
ATOM     79  CB  PHE A  11      25.643 -23.303   8.457  1.00  0.00    +0.057 C 
ATOM     80  CG  PHE A  11      25.410 -21.970   7.791  1.00  0.00    -0.020 A 
ATOM     81  CD1 PHE A  11      24.693 -21.915   6.587  1.00  0.00    -0.004 A 
ATOM     82  CE1 PHE A  11      24.547 -20.692   5.917  1.00  0.00    -0.000 A 
ATOM     83  CD2 PHE A  11      25.971 -20.787   8.298  1.00  0.00    -0.004 A 
ATOM     84  CE2 PHE A  11      25.779 -19.566   7.678  1.00  0.00    -0.000 A 
ATOM     85  CZ  PHE A  11      25.121 -19.531   6.446  1.00  0.00    -0.000 A 
ATOM     86  N   PHE A  12      24.865 -24.823  11.708  1.00  0.00    -0.196 N 
ATOM     87  CA  PHE A  12      24.336 -26.116  12.154  1.00  0.00    +0.177 C 
ATOM     88  C   PHE A  12      22.859 -26.276  11.803  1.00  0.00    +0.262 C 
ATOM     89  O   PHE A  12      22.295 -27.353  12.003  1.00  0.00    -0.271 OA
ATOM     90  CB  PHE A  12      24.537 -26.286  13.656  1.00  0.00    +0.057 C 
ATOM     91  CG  PHE A  12      25.982 -26.429  14.050  1.00  0.00    -0.020 A 
ATOM     92  CD1 PHE A  12      26.662 -27.629  13.782  1.00  0.00    -0.004 A 
ATOM     93  CE1 PHE A  12      28.006 -27.773  14.156  1.00  0.00    -0.000 A 
ATOM     94  CD2 PHE A  12      26.639 -25.383  14.714  1.00  0.00    -0.004 A 
ATOM     95  CE2 PHE A  12      27.977 -25.546  15.111  1.00  0.00    -0.000 A 
ATOM     96  CZ  PHE A  12      28.668 -26.725  14.811  1.00  0.00    -0.000 A 
ATOM     97  N   ALA A  13      22.223 -25.218  11.288  1.00  0.00    -0.196 N 
ATOM     98  CA  ALA A  13      20.833 -25.273  10.853  1.00  0.00    +0.173 C 
ATOM     99  C   ALA A  13      20.637 -26.273   9.707  1.00  0.00    +0.262 C 
ATOM    100  O   ALA A  13      19.555 -26.836   9.554  1.00  0.00    -0.271 OA
ATOM    101  CB  ALA A  13      20.368 -23.872  10.451  1.00  0.00    +0.033 C 
ATOM    102  N   GLY A  14      21.675 -26.567   8.928  1.00  0.00    -0.194 N 
ATOM    103  CA  GLY A  14      22.026 -25.707   7.801  1.00  0.00    +0.201 C 
ATOM    104  C   GLY A  14      21.587 -26.384   6.506  1.00  0.00    +0.264 C 
ATOM    105  O   GLY A  14      20.979 -27.460   6.536  1.00  0.00    -0.271 OA
ATOM    106  N   SER A  15      21.880 -25.752   5.372  1.00  0.00    -0.194 N 
ATOM    107  CA  SER A  15      21.314 -26.159   4.091  1.00  0.00    +0.205 C 
ATOM    108  C   SER A  15      21.654 -27.619   3.741  1.00  0.00    +0.264 C 
ATOM    109  O   SER A  15      22.660 -28.173   4.189  1.00  0.00    -0.271 OA
ATOM    110  CB  SER A  15      21.771 -25.200   2.982  1.00  0.00    +0.213 C 
ATOM    111  OG  SER A  15      23.042 -25.572   2.491  1.00  0.00    -0.218 OA
ATOM    112  N   SER A  16      20.841 -28.263   2.921  1.00  0.00    -0.194 N 
ATOM    113  CA  SER A  16      19.681 -27.660   2.272  1.00  0.00    +0.205 C 
ATOM    114  C   SER A  16      18.382 -27.868   3.037  1.00  0.00    +0.264 C 
ATOM    115  O   SER A  16      18.121 -28.959   3.537  1.00  0.00    -0.271 OA
ATOM    116  CB  SER A  16      19.569 -28.218   0.879  1.00  0.00    +0.213 C 
ATOM    117  OG  SER A  16      19.404 -29.595   0.800  1.00  0.00    -0.218 OA
ATOM    118  N   ASP A  17      17.529 -26.841   3.046  1.00  0.00    -0.196 N 
ATOM    119  CA  ASP A  17      16.104 -27.046   2.736  1.00  0.00    +0.184 C 
ATOM    120  C   ASP A  17      15.846 -26.996   1.224  1.00  0.00    +0.262 C 
ATOM    121  O   ASP A  17      14.788 -27.415   0.758  1.00  0.00    -0.271 OA
ATOM    122  CB  ASP A  17      15.246 -25.981   3.421  1.00  0.00    +0.145 C 
ATOM    123  CG  ASP A  17      15.421 -25.952   4.937  1.00  0.00    +0.367 C 
ATOM    124  OD1 ASP A  17      15.710 -27.004   5.553  1.00  0.00    -0.246 OA
ATOM    125  OD2 ASP A  17      15.244 -24.864   5.531  1.00  0.00    -0.246 OA
ATOM    126  N   ALA A  18      16.804 -26.492   0.446  1.00  0.00    -0.196 N 
ATOM    127  CA  ALA A  18      16.779 -26.519  -1.011  1.00  0.00    +0.173 C 
ATOM    128  C   ALA A  18      18.149 -26.808  -1.621  1.00  0.00    +0.262 C 
ATOM    129  O   ALA A  18      19.186 -26.463  -1.056  1.00  0.00    -0.271 OA
ATOM    130  CB  ALA A  18      16.275 -25.170  -1.511  1.00  0.00    +0.033 C 
ATOM    131  N   ILE A  19      18.166 -27.366  -2.821  1.00  0.00    -0.196 N 
ATOM    132  CA  ILE A  19      19.410 -27.653  -3.529  1.00  0.00    +0.173 C 
ATOM    133  C   ILE A  19      19.490 -26.793  -4.781  1.00  0.00    +0.262 C 
ATOM    134  O   ILE A  19      18.481 -26.563  -5.454  1.00  0.00    -0.271 OA
ATOM    135  CB  ILE A  19      19.532 -29.148  -3.877  1.00  0.00    +0.029 C 
ATOM    136  CG1 ILE A  19      18.977 -30.049  -2.755  1.00  0.00    +0.002 C 
ATOM    137  CG2 ILE A  19      21.004 -29.521  -4.127  1.00  0.00    +0.002 C 
ATOM    138  CD1 ILE A  19      19.039 -31.539  -3.083  1.00  0.00    +0.000 C 
ATOM    139  N   ARG A  20      20.705 -26.378  -5.137  1.00  0.00    -0.196 N 
ATOM    140  CA  ARG A  20      21.056 -26.172  -6.539  1.00  0.00    +0.173 C 
ATOM    141  C   ARG A  20      21.167 -27.515  -7.262  1.00  0.00    +0.262 C 
ATOM    142  O   ARG A  20      21.896 -28.404  -6.825  1.00  0.00    -0.271 OA
ATOM    143  CB  ARG A  20      22.373 -25.393  -6.636  1.00  0.00    +0.033 C 
ATOM    144  CG  ARG A  20      22.766 -25.140  -8.096  1.00  0.00    +0.029 C 
ATOM    145  CD  ARG A  20      23.729 -23.963  -8.198  1.00  0.00    +0.129 C 
ATOM    146  NE  ARG A  20      23.960 -23.582  -9.600  1.00  0.00    -0.234 NA
ATOM    147  CZ  ARG A  20      24.795 -22.646 -10.007  1.00  0.00    +0.284 C 
ATOM    148  NH1 ARG A  20      25.565 -22.004  -9.171  1.00  0.00    -0.104 N 
ATOM    149  NH2 ARG A  20      24.869 -22.336 -11.269  1.00  0.00    -0.104 N 
ATOM    150  N   ARG A  21      20.517 -27.627  -8.416  1.00  0.00    -0.194 N 
ATOM    151  CA  ARG A  21      20.997 -28.473  -9.522  1.00  0.00    +0.198 C 
ATOM    152  C   ARG A  21      21.764 -27.625 -10.530  1.00  0.00    +0.384 C 
ATOM    153  O   ARG A  21      22.821 -28.075 -11.010  1.00  0.00    -0.244 OA
ATOM    154  CB  ARG A  21      19.817 -29.185 -10.191  1.00  0.00    +0.035 C 
ATOM    155  CG  ARG A  21      19.264 -30.370  -9.384  1.00  0.00    +0.029 C 
ATOM    156  CD  ARG A  21      19.982 -31.677  -9.732  1.00  0.00    +0.129 C 
ATOM    157  NE  ARG A  21      19.304 -32.851  -9.152  1.00  0.00    -0.234 NA
ATOM    158  CZ  ARG A  21      19.974 -33.799  -8.529  1.00  0.00    +0.284 C 
ATOM    159  NH1 ARG A  21      20.187 -33.747  -7.246  1.00  0.00    -0.104 N 
ATOM    160  NH2 ARG A  21      20.415 -34.823  -9.197  1.00  0.00    -0.104 N 
ATOM    161  OXT ARG A  21      21.313 -26.506 -10.845  1.00  0.00    -0.244 OA
ATOM    162  H   MET A   1      14.486  -4.918  -1.891  1.00  0.00    +0.000 HD
ATOM    163  H   MET A   1      13.800  -5.909  -0.742  1.00  0.00    +0.000 HD
ATOM    164  H   LYS A   2      17.745  -5.655   1.042  1.00  0.00    +0.000 HD
ATOM    165  H   LYS A   2      17.823 -12.201   1.962  1.00  0.00    +0.000 HD
ATOM    166  H   LYS A   2      18.789 -13.550   2.107  1.00  0.00    +0.000 HD
ATOM    167  H   GLN A   3      16.571  -7.306   4.853  1.00  0.00    +0.000 HD
ATOM    168  H   GLN A   3      19.303  -3.267   9.486  1.00  0.00    +0.000 HD
ATOM    169  H   GLN A   3      20.450  -3.952   8.426  1.00  0.00    +0.000 HD
ATOM    170  H   ALA A   4      20.129  -9.563   5.748  1.00  0.00    +0.000 HD
ATOM    171  H   VAL A   5      19.062 -11.468   9.504  1.00  0.00    +0.000 HD
ATOM    172  H   ASN A   6      22.812 -14.057   8.933  1.00  0.00    +0.000 HD
ATOM    173  H   ASN A   6      23.815 -18.759   8.485  1.00  0.00    +0.000 HD
ATOM    174  H   ASN A   6      23.025 -18.587   6.983  1.00  0.00    +0.000 HD
ATOM    175  H   ALA A   7      22.709 -13.689  12.665  1.00  0.00    +0.000 HD
ATOM    176  H   LEU A   8      26.923 -13.924  10.768  1.00  0.00    +0.000 HD
ATOM    177  H   LEU A   9      29.419 -17.073  13.330  1.00  0.00    +0.000 HD
ATOM    178  H   VAL A  10      27.568 -18.963  12.370  1.00  0.00    +0.000 HD
ATOM    179  H   PHE A  11      27.640 -23.032  10.444  1.00  0.00    +0.000 HD
ATOM    180  H   PHE A  12      24.738 -24.032  12.279  1.00  0.00    +0.000 HD
ATOM    181  H   ALA A  13      22.712 -24.369  11.199  1.00  0.00    +0.000 HD
ATOM    182  H   GLY A  14      22.212 -27.371   9.112  1.00  0.00    +0.000 HD
ATOM    183  H   SER A  15      22.497 -24.986   5.399  1.00  0.00    +0.000 HD
ATOM    184  H   SER A  15      23.690 -25.536   3.211  1.00  0.00    +0.000 HD
ATOM    185  H   SER A  16      21.030 -29.212   2.736  1.00  0.00    +0.000 HD
ATOM    186  H   SER A  16      20.186 -30.036   1.168  1.00  0.00    +0.000 HD
ATOM    187  H   ASP A  17      17.856 -25.938   3.261  1.00  0.00    +0.000 HD
ATOM    188  H   ASP A  17      15.838 -27.803   5.081  1.00  0.00    +0.000 HD
ATOM    189  H   ALA A  18      17.581 -26.074   0.884  1.00  0.00    +0.000 HD
ATOM    190  H   ILE A  19      17.310 -27.595  -3.250  1.00  0.00    +0.000 HD
ATOM    191  H   ARG A  20      21.380 -26.206  -4.440  1.00  0.00    +0.000 HD
ATOM    192  H   ARG A  20      26.180 -21.309  -9.503  1.00  0.00    +0.000 HD
ATOM    193  H   ARG A  20      25.531 -22.213  -8.210  1.00  0.00    +0.000 HD
ATOM    194  H   ARG A  20      25.494 -21.637 -11.568  1.00  0.00    +0.000 HD
ATOM    195  H   ARG A  20      24.300 -22.800 -11.924  1.00  0.00    +0.000 HD
ATOM    196  H   ARG A  21      19.679 -27.123  -8.536  1.00  0.00    +0.000 HD
ATOM    197  H   ARG A  21      23.131 -28.920 -10.750  1.00  0.00    +0.000 HD
ATOM    198  H   ARG A  21      19.861 -32.979  -6.723  1.00  0.00    +0.000 HD
ATOM    199  H   ARG A  21      20.674 -34.476  -6.799  1.00  0.00    +0.000 HD
ATOM    200  H   ARG A  21      20.264 -34.880 -10.169  1.00  0.00    +0.000 HD
ATOM    201  H   ARG A  21      20.901 -35.542  -8.733  1.00  0.00    +0.000 HD
ENDROOT
TORSDOF 0
