REMARK  Name = /var/folders/yp/yjbh3p597675h2qddgqr02y00000gn/T/tmpk0kq4ij5.pdb
REMARK     285 UNITARY VALUES FOR THE UNIT CELL AUTOMATICALLY SET
REMARK     285 BY MDANALYSIS PDBWRITER BECAUSE UNIT CELL INFORMATION
REMARK     285 WAS MISSING.
REMARK     285 PROTEIN DATA BANK CONVENTIONS REQUIRE THAT
REMARK     285 CRYST1 RECORD IS INCLUDED, BUT THE VALUES ON
REMARK     285 THIS RECORD ARE MEANINGLESS.
REMARK     285 UNITARY VALUES FOR THE UNIT CELL AUTOMATICALLY SET
REMARK     285 BY MDANALYSIS PDBWRITER BECAUSE UNIT CELL INFORMATION
REMARK     285 WAS MISSING.
REMARK     285 PROTEIN DATA BANK CONVENTIONS REQUIRE THAT
REMARK     285 CRYST1 RECORD IS INCLUDED, BUT THE VALUES ON
REMARK     285 THIS RECORD ARE MEANINGLESS.
REMARK                            x       y       z     vdW  Elec       q    Type
REMARK                         _______ _______ _______ _____ _____    ______ ____
ROOT
ATOM      1  N   MET A   1       4.353  -5.322  38.212  1.00  0.00    -0.123 NA
ATOM      2  CA  MET A   1       5.501  -5.952  37.566  1.00  0.00    +0.170 C 
ATOM      3  C   MET A   1       5.370  -5.902  36.053  1.00  0.00    +0.259 C 
ATOM      4  O   MET A   1       4.279  -6.087  35.514  1.00  0.00    -0.272 OA
ATOM      5  CB  MET A   1       5.651  -7.396  38.015  1.00  0.00    +0.040 C 
ATOM      6  CG  MET A   1       6.985  -8.018  37.637  1.00  0.00    +0.060 C 
ATOM      7  SD  MET A   1       8.384  -6.912  37.948  1.00  0.00    -0.139 S 
ATOM      8  CE  MET A   1       7.543  -5.522  38.700  1.00  0.00    +0.069 C 
ATOM      9  N   LYS A   2       6.480  -5.652  35.365  1.00  0.00    -0.197 N 
ATOM     10  CA  LYS A   2       6.528  -5.809  33.915  1.00  0.00    +0.173 C 
ATOM     11  C   LYS A   2       6.779  -7.259  33.531  1.00  0.00    +0.262 C 
ATOM     12  O   LYS A   2       7.639  -7.918  34.112  1.00  0.00    -0.271 OA
ATOM     13  CB  LYS A   2       7.611  -4.930  33.311  1.00  0.00    +0.031 C 
ATOM     14  CG  LYS A   2       7.635  -4.942  31.791  1.00  0.00    +0.009 C 
ATOM     15  CD  LYS A   2       8.934  -4.376  31.243  1.00  0.00    +0.049 C 
ATOM     16  CE  LYS A   2       8.818  -2.953  30.941  1.00  0.00    +0.096 C 
ATOM     17  NZ  LYS A   2       9.133  -1.970  31.781  1.00  0.00    -0.151 NA
ATOM     18  N   GLN A   3       6.026  -7.755  32.553  1.00  0.00    -0.196 N 
ATOM     19  CA  GLN A   3       6.571  -8.696  31.578  1.00  0.00    +0.173 C 
ATOM     20  C   GLN A   3       7.412  -7.976  30.536  1.00  0.00    +0.262 C 
ATOM     21  O   GLN A   3       7.036  -6.907  30.058  1.00  0.00    -0.271 OA
ATOM     22  CB  GLN A   3       5.457  -9.466  30.887  1.00  0.00    +0.041 C 
ATOM     23  CG  GLN A   3       4.696 -10.403  31.811  1.00  0.00    +0.091 C 
ATOM     24  CD  GLN A   3       3.566 -11.134  31.105  1.00  0.00    +0.261 C 
ATOM     25  OE1 GLN A   3       3.266 -10.861  29.934  1.00  0.00    -0.272 OA
ATOM     26  NE2 GLN A   3       2.930 -12.066  31.810  1.00  0.00    -0.088 N 
ATOM     27  N   ALA A   4       8.553  -8.562  30.182  1.00  0.00    -0.196 N 
ATOM     28  CA  ALA A   4       8.991  -8.599  28.790  1.00  0.00    +0.173 C 
ATOM     29  C   ALA A   4       8.054  -9.447  27.945  1.00  0.00    +0.262 C 
ATOM     30  O   ALA A   4       7.385 -10.342  28.459  1.00  0.00    -0.271 OA
ATOM     31  CB  ALA A   4      10.405  -9.145  28.682  1.00  0.00    +0.033 C 
ATOM     32  N   VAL A   5       8.004  -9.165  26.647  1.00  0.00    -0.196 N 
ATOM     33  CA  VAL A   5       6.828  -9.489  25.844  1.00  0.00    +0.173 C 
ATOM     34  C   VAL A   5       6.727 -10.995  25.661  1.00  0.00    +0.262 C 
ATOM     35  O   VAL A   5       7.675 -11.631  25.201  1.00  0.00    -0.271 OA
ATOM     36  CB  VAL A   5       6.865  -8.813  24.483  1.00  0.00    +0.029 C 
ATOM     37  CG1 VAL A   5       7.980  -9.399  23.619  1.00  0.00    +0.002 C 
ATOM     38  CG2 VAL A   5       5.542  -9.022  23.748  1.00  0.00    +0.002 C 
ATOM     39  N   ASN A   6       5.581 -11.564  26.019  1.00  0.00    -0.196 N 
ATOM     40  CA  ASN A   6       5.239 -12.919  25.593  1.00  0.00    +0.182 C 
ATOM     41  C   ASN A   6       4.832 -12.956  24.128  1.00  0.00    +0.262 C 
ATOM     42  O   ASN A   6       4.933 -13.997  23.480  1.00  0.00    -0.271 OA
ATOM     43  CB  ASN A   6       4.119 -13.490  26.446  1.00  0.00    +0.120 C 
ATOM     44  CG  ASN A   6       3.927 -14.983  26.235  1.00  0.00    +0.263 C 
ATOM     45  OD1 ASN A   6       4.780 -15.654  25.656  1.00  0.00    -0.272 OA
ATOM     46  ND2 ASN A   6       2.799 -15.508  26.704  1.00  0.00    -0.088 N 
ATOM     47  N   ALA A   7       4.376 -11.821  23.607  1.00  0.00    -0.196 N 
ATOM     48  CA  ALA A   7       4.389 -11.588  22.166  1.00  0.00    +0.173 C 
ATOM     49  C   ALA A   7       5.812 -11.520  21.637  1.00  0.00    +0.262 C 
ATOM     50  O   ALA A   7       6.658 -10.830  22.206  1.00  0.00    -0.271 OA
ATOM     51  CB  ALA A   7       3.659 -10.299  21.822  1.00  0.00    +0.033 C 
ATOM     52  N   LEU A   8       6.080 -12.238  20.550  1.00  0.00    -0.196 N 
ATOM     53  CA  LEU A   8       7.173 -13.205  20.527  1.00  0.00    +0.173 C 
ATOM     54  C   LEU A   8       8.519 -12.498  20.525  1.00  0.00    +0.262 C 
ATOM     55  O   LEU A   8       8.619 -11.347  20.105  1.00  0.00    -0.271 OA
ATOM     56  CB  LEU A   8       7.071 -14.105  19.305  1.00  0.00    +0.031 C 
ATOM     57  CG  LEU A   8       6.355 -15.440  19.513  1.00  0.00    +0.002 C 
ATOM     58  CD1 LEU A   8       6.221 -16.178  18.186  1.00  0.00    +0.000 C 
ATOM     59  CD2 LEU A   8       4.875 -15.216  19.806  1.00  0.00    +0.000 C 
ATOM     60  N   LEU A   9       9.555 -13.188  20.995  1.00  0.00    -0.196 N 
ATOM     61  CA  LEU A   9      10.876 -13.087  20.380  1.00  0.00    +0.173 C 
ATOM     62  C   LEU A   9      11.204 -14.344  19.591  1.00  0.00    +0.262 C 
ATOM     63  O   LEU A   9      10.407 -15.280  19.548  1.00  0.00    -0.271 OA
ATOM     64  CB  LEU A   9      11.945 -12.858  21.436  1.00  0.00    +0.031 C 
ATOM     65  CG  LEU A   9      11.827 -11.564  22.243  1.00  0.00    +0.002 C 
ATOM     66  CD1 LEU A   9      12.666 -11.656  23.512  1.00  0.00    +0.000 C 
ATOM     67  CD2 LEU A   9      10.447 -11.455  22.883  1.00  0.00    +0.000 C 
ATOM     68  N   VAL A  10      12.377 -14.368  18.966  1.00  0.00    -0.196 N 
ATOM     69  CA  VAL A  10      12.472 -14.647  17.536  1.00  0.00    +0.173 C 
ATOM     70  C   VAL A  10      13.411 -15.819  17.302  1.00  0.00    +0.262 C 
ATOM     71  O   VAL A  10      14.526 -15.841  17.820  1.00  0.00    -0.271 OA
ATOM     72  CB  VAL A  10      12.963 -13.439  16.754  1.00  0.00    +0.029 C 
ATOM     73  CG1 VAL A  10      12.027 -13.136  15.586  1.00  0.00    +0.002 C 
ATOM     74  CG2 VAL A  10      13.009 -12.206  17.653  1.00  0.00    +0.002 C 
ATOM     75  N   PHE A  11      12.960 -16.797  16.519  1.00  0.00    -0.196 N 
ATOM     76  CA  PHE A  11      12.187 -17.910  17.062  1.00  0.00    +0.177 C 
ATOM     77  C   PHE A  11      13.106 -19.019  17.548  1.00  0.00    +0.262 C 
ATOM     78  O   PHE A  11      13.023 -19.440  18.700  1.00  0.00    -0.271 OA
ATOM     79  CB  PHE A  11      11.230 -18.465  16.017  1.00  0.00    +0.057 C 
ATOM     80  CG  PHE A  11       9.792 -18.439  16.440  1.00  0.00    -0.020 A 
ATOM     81  CD1 PHE A  11       9.095 -17.236  16.466  1.00  0.00    -0.004 A 
ATOM     82  CE1 PHE A  11       7.763 -17.213  16.856  1.00  0.00    -0.000 A 
ATOM     83  CD2 PHE A  11       9.154 -19.619  16.803  1.00  0.00    -0.004 A 
ATOM     84  CE2 PHE A  11       7.819 -19.595  17.194  1.00  0.00    -0.000 A 
ATOM     85  CZ  PHE A  11       7.124 -18.393  17.220  1.00  0.00    -0.000 A 
ATOM     86  N   PHE A  12      13.983 -19.493  16.670  1.00  0.00    -0.196 N 
ATOM     87  CA  PHE A  12      13.553 -20.267  15.507  1.00  0.00    +0.177 C 
ATOM     88  C   PHE A  12      13.762 -21.753  15.744  1.00  0.00    +0.262 C 
ATOM     89  O   PHE A  12      13.163 -22.585  15.065  1.00  0.00    -0.271 OA
ATOM     90  CB  PHE A  12      14.311 -19.840  14.261  1.00  0.00    +0.057 C 
ATOM     91  CG  PHE A  12      13.963 -18.462  13.781  1.00  0.00    -0.020 A 
ATOM     92  CD1 PHE A  12      12.844 -18.265  12.983  1.00  0.00    -0.004 A 
ATOM     93  CE1 PHE A  12      12.522 -16.989  12.539  1.00  0.00    -0.000 A 
ATOM     94  CD2 PHE A  12      14.763 -17.381  14.137  1.00  0.00    -0.004 A 
ATOM     95  CE2 PHE A  12      14.440 -16.104  13.694  1.00  0.00    -0.000 A 
ATOM     96  CZ  PHE A  12      13.321 -15.907  12.894  1.00  0.00    -0.000 A 
ATOM     97  N   ALA A  13      14.615 -22.089  16.709  1.00  0.00    -0.196 N 
ATOM     98  CA  ALA A  13      15.586 -23.164  16.525  1.00  0.00    +0.173 C 
ATOM     99  C   ALA A  13      14.891 -24.492  16.277  1.00  0.00    +0.262 C 
ATOM    100  O   ALA A  13      15.487 -25.414  15.719  1.00  0.00    -0.271 OA
ATOM    101  CB  ALA A  13      16.493 -23.284  17.740  1.00  0.00    +0.033 C 
ATOM    102  N   GLY A  14      13.632 -24.593  16.691  1.00  0.00    -0.194 N 
ATOM    103  CA  GLY A  14      13.257 -25.496  17.774  1.00  0.00    +0.201 C 
ATOM    104  C   GLY A  14      12.100 -26.390  17.360  1.00  0.00    +0.264 C 
ATOM    105  O   GLY A  14      11.602 -26.287  16.240  1.00  0.00    -0.271 OA
ATOM    106  N   SER A  15      11.674 -27.271  18.262  1.00  0.00    -0.194 N 
ATOM    107  CA  SER A  15      12.609 -27.998  19.116  1.00  0.00    +0.205 C 
ATOM    108  C   SER A  15      12.260 -29.475  19.183  1.00  0.00    +0.264 C 
ATOM    109  O   SER A  15      11.102 -29.853  19.007  1.00  0.00    -0.271 OA
ATOM    110  CB  SER A  15      12.616 -27.414  20.520  1.00  0.00    +0.213 C 
ATOM    111  OG  SER A  15      11.591 -27.993  21.310  1.00  0.00    -0.218 OA
ATOM    112  N   SER A  16      13.261 -30.313  19.438  1.00  0.00    -0.194 N 
ATOM    113  CA  SER A  16      13.013 -31.699  19.826  1.00  0.00    +0.205 C 
ATOM    114  C   SER A  16      12.426 -31.781  21.226  1.00  0.00    +0.264 C 
ATOM    115  O   SER A  16      12.694 -30.925  22.067  1.00  0.00    -0.271 OA
ATOM    116  CB  SER A  16      14.297 -32.510  19.766  1.00  0.00    +0.213 C 
ATOM    117  OG  SER A  16      15.220 -32.062  20.743  1.00  0.00    -0.218 OA
ATOM    118  N   ASP A  17      11.625 -32.813  21.475  1.00  0.00    -0.196 N 
ATOM    119  CA  ASP A  17      11.821 -33.660  22.649  1.00  0.00    +0.184 C 
ATOM    120  C   ASP A  17      12.505 -34.964  22.274  1.00  0.00    +0.262 C 
ATOM    121  O   ASP A  17      12.264 -35.510  21.198  1.00  0.00    -0.271 OA
ATOM    122  CB  ASP A  17      10.494 -33.962  23.327  1.00  0.00    +0.144 C 
ATOM    123  CG  ASP A  17      10.653 -34.712  24.640  1.00  0.00    +0.354 C 
ATOM    124  OD1 ASP A  17      11.618 -35.495  24.782  1.00  0.00    -0.294 OA
ATOM    125  OD2 ASP A  17       9.805 -34.518  25.538  1.00  0.00    -0.247 OA
ATOM    126  N   ALA A  18      13.363 -35.464  23.159  1.00  0.00    -0.202 N 
ATOM    127  CA  ALA A  18      13.325 -36.871  23.544  1.00  0.00    +0.144 C 
ATOM    128  C   ALA A  18      12.058 -37.191  24.322  1.00  0.00    +0.258 C 
ATOM    129  O   ALA A  18      11.643 -36.419  25.184  1.00  0.00    -0.152 OA
ATOM    130  CB  ALA A  18      14.540 -37.235  24.382  1.00  0.00    +0.028 C 
ATOM    131  N   ILE A  19      11.443 -38.330  24.017  1.00  0.00    -0.179 NA
ATOM    132  CA  ILE A  19      10.740 -39.109  25.032  1.00  0.00    +0.153 C 
ATOM    133  C   ILE A  19      11.520 -40.377  25.338  1.00  0.00    +0.258 C 
ATOM    134  O   ILE A  19      11.912 -41.105  24.427  1.00  0.00    -0.272 OA
ATOM    135  CB  ILE A  19       9.330 -39.473  24.594  1.00  0.00    +0.033 C 
ATOM    136  CG1 ILE A  19       8.581 -38.234  24.109  1.00  0.00    +0.002 C 
ATOM    137  CG2 ILE A  19       8.562 -40.111  25.748  1.00  0.00    +0.095 C 
ATOM    138  CD1 ILE A  19       7.115 -38.484  23.793  1.00  0.00    +0.000 C 
ATOM    139  N   ARG A  20      11.746 -40.643  26.622  1.00  0.00    -0.197 N 
ATOM    140  CA  ARG A  20      11.446 -41.954  27.190  1.00  0.00    +0.173 C 
ATOM    141  C   ARG A  20       9.947 -42.197  27.237  1.00  0.00    +0.261 C 
ATOM    142  O   ARG A  20       9.484 -43.301  26.956  1.00  0.00    -0.271 OA
ATOM    143  CB  ARG A  20      12.024 -42.082  28.591  1.00  0.00    +0.033 C 
ATOM    144  CG  ARG A  20      11.600 -43.349  29.316  1.00  0.00    +0.029 C 
ATOM    145  CD  ARG A  20      12.124 -44.597  28.623  1.00  0.00    +0.129 C 
ATOM    146  NE  ARG A  20      11.679 -45.814  29.297  1.00  0.00    -0.234 NA
ATOM    147  CZ  ARG A  20      10.633 -46.547  28.925  1.00  0.00    +0.284 C 
ATOM    148  NH1 ARG A  20       9.918 -46.216  27.854  1.00  0.00    -0.104 N 
ATOM    149  NH2 ARG A  20      10.299 -47.622  29.634  1.00  0.00    -0.104 N 
ATOM    150  N   ARG A  21       9.185 -41.166  27.592  1.00  0.00    -0.198 N 
ATOM    151  CA  ARG A  21       7.753 -41.323  27.824  1.00  0.00    +0.179 C 
ATOM    152  C   ARG A  21       6.949 -40.784  26.652  1.00  0.00    +0.369 C 
ATOM    153  O   ARG A  21       6.813 -39.573  26.491  1.00  0.00    -0.274 OA
ATOM    154  CB  ARG A  21       7.328 -40.613  29.099  1.00  0.00    +0.032 C 
ATOM    155  CG  ARG A  21       7.608 -41.408  30.365  1.00  0.00    +0.028 C 
ATOM    156  CD  ARG A  21       9.082 -41.368  30.741  1.00  0.00    +0.129 C 
ATOM    157  NE  ARG A  21       9.398 -42.340  31.784  1.00  0.00    -0.234 NA
ATOM    158  CZ  ARG A  21       9.900 -42.037  32.977  1.00  0.00    +0.284 C 
ATOM    159  NH1 ARG A  21      11.204 -42.153  33.213  1.00  0.00    -0.104 N 
ATOM    160  NH2 ARG A  21       9.089 -41.613  33.941  1.00  0.00    -0.104 N 
ATOM    161  OXT ARG A  21       6.426 -41.553  25.846  1.00  0.00    -0.274 OA
ATOM    162  H   MET A   1       4.273  -4.355  37.896  1.00  0.00    +0.000 HD
ATOM    163  H   MET A   1       4.480  -5.340  39.224  1.00  0.00    +0.000 HD
ATOM    164  H   LYS A   2       7.288  -5.354  35.844  1.00  0.00    +0.000 HD
ATOM    165  H   LYS A   2       9.473  -2.181  32.681  1.00  0.00    +0.000 HD
ATOM    166  H   GLN A   3       5.082  -7.483  32.485  1.00  0.00    +0.000 HD
ATOM    167  H   GLN A   3       2.190 -12.570  31.403  1.00  0.00    +0.000 HD
ATOM    168  H   GLN A   3       3.200 -12.250  32.738  1.00  0.00    +0.000 HD
ATOM    169  H   ALA A   4       9.114  -8.980  30.875  1.00  0.00    +0.000 HD
ATOM    170  H   VAL A   5       8.776  -8.730  26.218  1.00  0.00    +0.000 HD
ATOM    171  H   ASN A   6       4.949 -11.062  26.582  1.00  0.00    +0.000 HD
ATOM    172  H   ASN A   6       2.621 -16.470  26.595  1.00  0.00    +0.000 HD
ATOM    173  H   ASN A   6       2.142 -14.935  27.161  1.00  0.00    +0.000 HD
ATOM    174  H   ALA A   7       4.021 -11.124  24.205  1.00  0.00    +0.000 HD
ATOM    175  H   LEU A   8       5.528 -12.114  19.744  1.00  0.00    +0.000 HD
ATOM    176  H   LEU A   9       9.429 -13.778  21.773  1.00  0.00    +0.000 HD
ATOM    177  H   VAL A  10      13.199 -14.194  19.478  1.00  0.00    +0.000 HD
ATOM    178  H   PHE A  11      13.152 -16.769  15.554  1.00  0.00    +0.000 HD
ATOM    179  H   PHE A  12      14.942 -19.319  16.805  1.00  0.00    +0.000 HD
ATOM    180  H   ALA A  13      14.591 -21.602  17.565  1.00  0.00    +0.000 HD
ATOM    181  H   GLY A  14      12.937 -24.047  16.257  1.00  0.00    +0.000 HD
ATOM    182  H   SER A  15      10.708 -27.437  18.355  1.00  0.00    +0.000 HD
ATOM    183  H   SER A  15      10.729 -27.808  20.907  1.00  0.00    +0.000 HD
ATOM    184  H   SER A  16      14.189 -29.992  19.363  1.00  0.00    +0.000 HD
ATOM    185  H   SER A  16      15.440 -31.132  20.579  1.00  0.00    +0.000 HD
ATOM    186  H   ASP A  17      10.885 -33.010  20.856  1.00  0.00    +0.000 HD
ATOM    187  H   ALA A  18      14.038 -34.872  23.562  1.00  0.00    +0.000 HD
ATOM    188  H   ILE A  19      12.153 -38.946  23.622  1.00  0.00    +0.000 HD
ATOM    189  H   ARG A  20      12.124 -39.941  27.200  1.00  0.00    +0.000 HD
ATOM    190  H   ARG A  20      10.162 -45.421  27.326  1.00  0.00    +0.000 HD
ATOM    191  H   ARG A  20       9.146 -46.765  27.589  1.00  0.00    +0.000 HD
ATOM    192  H   ARG A  20       9.526 -48.169  29.365  1.00  0.00    +0.000 HD
ATOM    193  H   ARG A  20      10.825 -47.871  30.428  1.00  0.00    +0.000 HD
ATOM    194  H   ARG A  21       9.596 -40.279  27.701  1.00  0.00    +0.000 HD
ATOM    195  H   ARG A  21       7.204 -38.973  27.094  1.00  0.00    +0.000 HD
ATOM    196  H   ARG A  21      11.807 -42.466  32.500  1.00  0.00    +0.000 HD
ATOM    197  H   ARG A  21      11.565 -41.925  34.100  1.00  0.00    +0.000 HD
ATOM    198  H   ARG A  21       8.123 -41.526  33.770  1.00  0.00    +0.000 HD
ATOM    199  H   ARG A  21       9.455 -41.385  34.827  1.00  0.00    +0.000 HD
ATOM    200  H   ARG A  21       6.520 -42.479  25.954  1.00  0.00    +0.000 HD
ENDROOT
TORSDOF 0
