REMARK  Name = /var/folders/yp/yjbh3p597675h2qddgqr02y00000gn/T/tmpvfnj6hvt.pdb
REMARK     285 UNITARY VALUES FOR THE UNIT CELL AUTOMATICALLY SET
REMARK     285 BY MDANALYSIS PDBWRITER BECAUSE UNIT CELL INFORMATION
REMARK     285 WAS MISSING.
REMARK     285 PROTEIN DATA BANK CONVENTIONS REQUIRE THAT
REMARK     285 CRYST1 RECORD IS INCLUDED, BUT THE VALUES ON
REMARK     285 THIS RECORD ARE MEANINGLESS.
REMARK     285 UNITARY VALUES FOR THE UNIT CELL AUTOMATICALLY SET
REMARK     285 BY MDANALYSIS PDBWRITER BECAUSE UNIT CELL INFORMATION
REMARK     285 WAS MISSING.
REMARK     285 PROTEIN DATA BANK CONVENTIONS REQUIRE THAT
REMARK     285 CRYST1 RECORD IS INCLUDED, BUT THE VALUES ON
REMARK     285 THIS RECORD ARE MEANINGLESS.
REMARK                            x       y       z     vdW  Elec       q    Type
REMARK                         _______ _______ _______ _____ _____    ______ ____
REMARK  Name = /var/folders/yp/yjbh3p597675h2qddgqr02y00000gn/T/tmpvfnj6hvt.pdb
REMARK     285 UNITARY VALUES FOR THE UNIT CELL AUTOMATICALLY SET
REMARK     285 BY MDANALYSIS PDBWRITER BECAUSE UNIT CELL INFORMATION
REMARK     285 WAS MISSING.
REMARK     285 PROTEIN DATA BANK CONVENTIONS REQUIRE THAT
REMARK     285 CRYST1 RECORD IS INCLUDED, BUT THE VALUES ON
REMARK     285 THIS RECORD ARE MEANINGLESS.
REMARK     285 UNITARY VALUES FOR THE UNIT CELL AUTOMATICALLY SET
REMARK     285 BY MDANALYSIS PDBWRITER BECAUSE UNIT CELL INFORMATION
REMARK     285 WAS MISSING.
REMARK     285 PROTEIN DATA BANK CONVENTIONS REQUIRE THAT
REMARK     285 CRYST1 RECORD IS INCLUDED, BUT THE VALUES ON
REMARK     285 THIS RECORD ARE MEANINGLESS.
REMARK                            x       y       z     vdW  Elec       q    Type
REMARK                         _______ _______ _______ _____ _____    ______ ____
REMARK  Name = /var/folders/yp/yjbh3p597675h2qddgqr02y00000gn/T/tmpvfnj6hvt.pdb
REMARK     285 UNITARY VALUES FOR THE UNIT CELL AUTOMATICALLY SET
REMARK     285 BY MDANALYSIS PDBWRITER BECAUSE UNIT CELL INFORMATION
REMARK     285 WAS MISSING.
REMARK     285 PROTEIN DATA BANK CONVENTIONS REQUIRE THAT
REMARK     285 CRYST1 RECORD IS INCLUDED, BUT THE VALUES ON
REMARK     285 THIS RECORD ARE MEANINGLESS.
REMARK     285 UNITARY VALUES FOR THE UNIT CELL AUTOMATICALLY SET
REMARK     285 BY MDANALYSIS PDBWRITER BECAUSE UNIT CELL INFORMATION
REMARK     285 WAS MISSING.
REMARK     285 PROTEIN DATA BANK CONVENTIONS REQUIRE THAT
REMARK     285 CRYST1 RECORD IS INCLUDED, BUT THE VALUES ON
REMARK     285 THIS RECORD ARE MEANINGLESS.
REMARK                            x       y       z     vdW  Elec       q    Type
REMARK                         _______ _______ _______ _____ _____    ______ ____
REMARK  Name = /var/folders/yp/yjbh3p597675h2qddgqr02y00000gn/T/tmpvfnj6hvt.pdb
REMARK     285 UNITARY VALUES FOR THE UNIT CELL AUTOMATICALLY SET
REMARK     285 BY MDANALYSIS PDBWRITER BECAUSE UNIT CELL INFORMATION
REMARK     285 WAS MISSING.
REMARK     285 PROTEIN DATA BANK CONVENTIONS REQUIRE THAT
REMARK     285 CRYST1 RECORD IS INCLUDED, BUT THE VALUES ON
REMARK     285 THIS RECORD ARE MEANINGLESS.
REMARK     285 UNITARY VALUES FOR THE UNIT CELL AUTOMATICALLY SET
REMARK     285 BY MDANALYSIS PDBWRITER BECAUSE UNIT CELL INFORMATION
REMARK     285 WAS MISSING.
REMARK     285 PROTEIN DATA BANK CONVENTIONS REQUIRE THAT
REMARK     285 CRYST1 RECORD IS INCLUDED, BUT THE VALUES ON
REMARK     285 THIS RECORD ARE MEANINGLESS.
REMARK                            x       y       z     vdW  Elec       q    Type
REMARK                         _______ _______ _______ _____ _____    ______ ____
REMARK  Name = /var/folders/yp/yjbh3p597675h2qddgqr02y00000gn/T/tmpvfnj6hvt.pdb
REMARK     285 UNITARY VALUES FOR THE UNIT CELL AUTOMATICALLY SET
REMARK     285 BY MDANALYSIS PDBWRITER BECAUSE UNIT CELL INFORMATION
REMARK     285 WAS MISSING.
REMARK     285 PROTEIN DATA BANK CONVENTIONS REQUIRE THAT
REMARK     285 CRYST1 RECORD IS INCLUDED, BUT THE VALUES ON
REMARK     285 THIS RECORD ARE MEANINGLESS.
REMARK     285 UNITARY VALUES FOR THE UNIT CELL AUTOMATICALLY SET
REMARK     285 BY MDANALYSIS PDBWRITER BECAUSE UNIT CELL INFORMATION
REMARK     285 WAS MISSING.
REMARK     285 PROTEIN DATA BANK CONVENTIONS REQUIRE THAT
REMARK     285 CRYST1 RECORD IS INCLUDED, BUT THE VALUES ON
REMARK     285 THIS RECORD ARE MEANINGLESS.
REMARK                            x       y       z     vdW  Elec       q    Type
REMARK                         _______ _______ _______ _____ _____    ______ ____
ROOT
ATOM      1  N   MET A   1     -26.250  -4.287  -1.597  1.00  0.00    -0.123 NA
ATOM      2  CA  MET A   1     -26.595  -2.949  -1.123  1.00  0.00    +0.170 C 
ATOM      3  C   MET A   1     -28.080  -2.677  -1.296  1.00  0.00    +0.259 C 
ATOM      4  O   MET A   1     -28.698  -3.159  -2.245  1.00  0.00    -0.272 OA
ATOM      5  CB  MET A   1     -25.796  -1.889  -1.864  1.00  0.00    +0.040 C 
ATOM      6  CG  MET A   1     -25.839  -0.520  -1.206  1.00  0.00    +0.060 C 
ATOM      7  SD  MET A   1     -24.780   0.689  -2.037  1.00  0.00    -0.139 S 
ATOM      8  CE  MET A   1     -23.164   0.120  -1.520  1.00  0.00    +0.069 C 
ATOM      9  N   LYS A   2     -28.655  -1.904  -0.378  1.00  0.00    -0.202 N 
ATOM     10  CA  LYS A   2     -30.094  -1.651  -0.393  1.00  0.00    +0.139 C 
ATOM     11  C   LYS A   2     -30.467  -0.678  -1.500  1.00  0.00    +0.209 C 
ATOM     12  O   LYS A   2     -29.754   0.297  -1.740  1.00  0.00    -0.338 OA
ATOM     13  CB  LYS A   2     -30.559  -1.100   0.945  1.00  0.00    +0.026 C 
ATOM     14  CG  LYS A   2     -30.386  -2.069   2.103  1.00  0.00    +0.008 C 
ATOM     15  CD  LYS A   2     -30.918  -1.494   3.405  1.00  0.00    +0.049 C 
ATOM     16  CE  LYS A   2     -31.025  -0.039   3.349  1.00  0.00    +0.096 C 
ATOM     17  NZ  LYS A   2     -32.054   0.664   3.812  1.00  0.00    -0.151 NA
ATOM     18  N   GLN A   3     -31.583  -0.941  -2.173  1.00  0.00    -0.190 NA
ATOM     19  CA  GLN A   3     -32.448   0.132  -2.658  1.00  0.00    +0.092 C 
ATOM     20  CB  GLN A   3     -33.358  -0.368  -3.768  1.00  0.00    +0.029 C 
ATOM     21  CG  GLN A   3     -32.650  -1.230  -4.799  1.00  0.00    +0.090 C 
ATOM     22  CD  GLN A   3     -33.611  -1.892  -5.773  1.00  0.00    +0.261 C 
ATOM     23  OE1 GLN A   3     -34.207  -2.936  -5.469  1.00  0.00    -0.272 OA
ATOM     24  NE2 GLN A   3     -33.770  -1.293  -6.950  1.00  0.00    -0.088 N 
ATOM     25  C   ALA A   4     -31.720   3.000  -2.948  1.00  0.00    +0.102 C 
ATOM     26  O   ALA A   4     -30.936   2.902  -2.006  1.00  0.00    -0.334 OA
ATOM     27  N   VAL A   5     -31.323   3.263  -4.190  1.00  0.00    -0.268 NA
ATOM     28  CA  VAL A   5     -29.997   2.873  -4.663  1.00  0.00    +0.090 C 
ATOM     29  C   VAL A   5     -29.092   4.093  -4.717  1.00  0.00    +0.321 C 
ATOM     30  O   VAL A   5     -29.501   5.155  -5.186  1.00  0.00    -0.263 OA
ATOM     31  N   ASN A   6     -27.860   3.944  -4.238  1.00  0.00    -0.190 N 
ATOM     32  CA  ASN A   6     -26.917   3.008  -4.842  1.00  0.00    +0.182 C 
ATOM     33  C   ASN A   6     -27.145   1.590  -4.345  1.00  0.00    +0.262 C 
ATOM     34  O   ASN A   6     -26.428   0.669  -4.733  1.00  0.00    -0.271 OA
ATOM     35  CB  ASN A   6     -25.482   3.421  -4.558  1.00  0.00    +0.120 C 
ATOM     36  CG  ASN A   6     -24.910   4.326  -5.636  1.00  0.00    +0.263 C 
ATOM     37  OD1 ASN A   6     -25.097   5.542  -5.604  1.00  0.00    -0.272 OA
ATOM     38  ND2 ASN A   6     -24.208   3.733  -6.598  1.00  0.00    -0.088 N 
ATOM     39  N   ALA A   7     -28.144   1.413  -3.485  1.00  0.00    -0.194 N 
ATOM     40  CA  ALA A   7     -28.825   2.545  -2.866  1.00  0.00    +0.200 C 
ATOM     41  C   ALA A   7     -27.867   3.357  -2.010  1.00  0.00    +0.264 C 
ATOM     42  O   ALA A   7     -26.947   2.805  -1.408  1.00  0.00    -0.271 OA
ATOM     43  CB  ALA A   7     -29.992   2.074  -2.013  1.00  0.00    +0.063 C 
ATOM     44  N   LEU A   8     -28.080   4.669  -1.955  1.00  0.00    -0.196 N 
ATOM     45  CA  LEU A   8     -28.908   5.262  -0.908  1.00  0.00    +0.173 C 
ATOM     46  C   LEU A   8     -30.385   5.038  -1.195  1.00  0.00    +0.262 C 
ATOM     47  O   LEU A   8     -30.834   5.212  -2.327  1.00  0.00    -0.271 OA
ATOM     48  CB  LEU A   8     -28.635   6.752  -0.785  1.00  0.00    +0.031 C 
ATOM     49  CG  LEU A   8     -27.492   7.151   0.150  1.00  0.00    +0.002 C 
ATOM     50  CD1 LEU A   8     -27.591   8.632   0.501  1.00  0.00    +0.000 C 
ATOM     51  CD2 LEU A   8     -26.167   7.178  -0.603  1.00  0.00    +0.000 C 
ATOM     52  N   LEU A   9     -31.139   4.653  -0.169  1.00  0.00    -0.196 N 
ATOM     53  CA  LEU A   9     -30.566   3.948   0.974  1.00  0.00    +0.173 C 
ATOM     54  C   LEU A   9     -30.553   2.448   0.736  1.00  0.00    +0.263 C 
ATOM     55  O   LEU A   9     -30.030   1.689   1.552  1.00  0.00    -0.271 OA
ATOM     56  CB  LEU A   9     -31.346   4.255   2.242  1.00  0.00    +0.031 C 
ATOM     57  CG  LEU A   9     -30.663   5.189   3.244  1.00  0.00    +0.002 C 
ATOM     58  CD1 LEU A   9     -30.679   4.571   4.637  1.00  0.00    +0.000 C 
ATOM     59  CD2 LEU A   9     -31.538   6.409   3.520  1.00  0.00    +0.000 C 
ATOM     60  N   VAL A  10     -31.128   2.017  -0.382  1.00  0.00    -0.172 N 
ATOM     61  CA  VAL A  10     -31.524   2.941  -1.440  1.00  0.00    +0.261 C 
ATOM     62  CB  VAL A  10     -30.988   2.512  -2.797  1.00  0.00    +0.136 C 
ATOM     63  CG1 VAL A  10     -30.808   3.721  -3.713  1.00  0.00    +0.090 C 
ATOM     64  CG2 VAL A  10     -29.630   1.833  -2.643  1.00  0.00    +0.148 C 
ATOM     65  H   MET A   1     -26.797  -4.980  -1.087  1.00  0.00    +0.000 HD
ATOM     66  H   MET A   1     -25.257  -4.457  -1.442  1.00  0.00    +0.000 HD
ATOM     67  H   LYS A   2     -28.100  -1.495   0.325  1.00  0.00    +0.000 HD
ATOM     68  H   LYS A   2     -32.818   0.204   4.229  1.00  0.00    +0.000 HD
ATOM     69  H   GLN A   3     -31.305  -1.480  -2.993  1.00  0.00    +0.000 HD
ATOM     70  H   GLN A   3     -34.380  -1.677  -7.620  1.00  0.00    +0.000 HD
ATOM     71  H   GLN A   3     -33.277  -0.465  -7.151  1.00  0.00    +0.000 HD
ATOM     72  H   ASN A   6     -27.579   4.477  -3.459  1.00  0.00    +0.000 HD
ATOM     73  H   ASN A   6     -24.083   2.757  -6.585  1.00  0.00    +0.000 HD
ATOM     74  H   ASN A   6     -23.814   4.271  -7.322  1.00  0.00    +0.000 HD
ATOM     75  H   ALA A   7     -28.430   0.497  -3.261  1.00  0.00    +0.000 HD
ATOM     76  H   LEU A   8     -27.672   5.252  -2.635  1.00  0.00    +0.000 HD
ATOM     77  H   LEU A   9     -32.104   4.847  -0.181  1.00  0.00    +0.000 HD
ATOM     78  H   VAL A  10     -31.291   1.052  -0.499  1.00  0.00    +0.000 HD
ATOM      1  C   GLN A   3     -33.290   0.706  -1.532  1.00  0.00    +0.303 C 
ATOM      2  O   GLN A   3     -33.760  -0.030  -0.664  1.00  0.00    -0.265 OA
ATOM      3  N   ALA A   4     -33.482   2.022  -1.541  1.00  0.00    -0.269 N 
ATOM      4  CA  ALA A   4     -33.214   2.821  -2.735  1.00  0.00    +0.115 C 
ATOM      5  C   VAL A  10     -33.039   3.037  -1.502  1.00  0.00    +0.115 C 
ATOM      1  CB  ALA A   4     -33.878   4.183  -2.632  1.00  0.00    +0.108 C 
ATOM      2  N   PHE A  11     -33.564   4.255  -1.415  1.00  0.00    -0.208 NA
ATOM      3  CA  PHE A  11     -34.769   4.511  -0.633  1.00  0.00    +0.155 C 
ATOM      4  C   PHE A  11     -35.996   3.950  -1.332  1.00  0.00    +0.258 C 
ATOM      5  O   PHE A  11     -36.344   4.388  -2.428  1.00  0.00    -0.272 OA
ATOM      6  CB  PHE A  11     -34.957   6.001  -0.395  1.00  0.00    +0.053 C 
ATOM      7  CG  PHE A  11     -35.001   6.382   1.054  1.00  0.00    -0.017 A 
ATOM      8  CD1 PHE A  11     -36.173   6.213   1.783  1.00  0.00    +0.033 A 
ATOM      9  CE1 PHE A  11     -36.214   6.566   3.125  1.00  0.00    +0.140 A 
ATOM     10  CD2 PHE A  11     -33.870   6.906   1.670  1.00  0.00    -0.004 A 
ATOM     11  CE2 PHE A  11     -33.911   7.259   3.014  1.00  0.00    +0.003 A 
ATOM     12  CZ  PHE A  11     -35.082   7.090   3.742  1.00  0.00    +0.037 A 
ATOM     13  N   PHE A  12     -36.652   2.981  -0.702  1.00  0.00    -0.196 N 
ATOM     14  CA  PHE A  12     -38.052   3.134  -0.322  1.00  0.00    +0.177 C 
ATOM     15  C   PHE A  12     -38.173   3.562   1.132  1.00  0.00    +0.262 C 
ATOM     16  O   PHE A  12     -39.096   4.292   1.493  1.00  0.00    -0.271 OA
ATOM     17  CB  PHE A  12     -38.818   1.837  -0.531  1.00  0.00    +0.057 C 
ATOM     18  CG  PHE A  12     -40.121   2.013  -1.252  1.00  0.00    -0.020 A 
ATOM     19  CD1 PHE A  12     -41.016   2.993  -0.841  1.00  0.00    -0.004 A 
ATOM     20  CE1 PHE A  12     -42.225   3.157  -1.507  1.00  0.00    -0.000 A 
ATOM     21  CD2 PHE A  12     -40.436   1.195  -2.331  1.00  0.00    -0.004 A 
ATOM     22  CE2 PHE A  12     -41.644   1.358  -2.999  1.00  0.00    -0.000 A 
ATOM     23  CZ  PHE A  12     -42.539   2.339  -2.586  1.00  0.00    -0.000 A 
ATOM     24  N   ALA A  13     -37.243   3.110   1.968  1.00  0.00    -0.200 N 
ATOM     25  CA  ALA A  13     -37.403   3.213   3.415  1.00  0.00    +0.153 C 
ATOM     26  C   ALA A  13     -37.430   4.666   3.859  1.00  0.00    +0.261 C 
ATOM     27  O   ALA A  13     -36.650   5.483   3.371  1.00  0.00    -0.460 OA
ATOM     28  CB  ALA A  13     -36.283   2.482   4.136  1.00  0.00    +0.029 C 
ATOM     29  N   GLY A  14     -38.328   4.991   4.784  1.00  0.00    -0.169 NA
ATOM     30  CA  GLY A  14     -39.264   6.093   4.581  1.00  0.00    +0.179 C 
ATOM     31  C   GLY A  14     -38.690   7.397   5.111  1.00  0.00    +0.260 C 
ATOM     32  O   GLY A  14     -37.487   7.499   5.348  1.00  0.00    -0.272 OA
ATOM     33  N   SER A  15     -39.549   8.395   5.297  1.00  0.00    -0.194 N 
ATOM     34  CA  SER A  15     -39.191   9.567   6.090  1.00  0.00    +0.205 C 
ATOM     35  C   SER A  15     -38.952   9.196   7.546  1.00  0.00    +0.264 C 
ATOM     36  O   SER A  15     -39.577   8.272   8.066  1.00  0.00    -0.271 OA
ATOM     37  CB  SER A  15     -40.282  10.622   6.010  1.00  0.00    +0.213 C 
ATOM     38  OG  SER A  15     -41.441  10.204   6.709  1.00  0.00    -0.218 OA
ATOM     39  N   SER A  16     -38.048   9.916   8.203  1.00  0.00    -0.194 N 
ATOM     40  CA  SER A  16     -38.265  10.332   9.586  1.00  0.00    +0.205 C 
ATOM     41  C   SER A  16     -39.421  11.312   9.692  1.00  0.00    +0.264 C 
ATOM     42  O   SER A  16     -39.496  12.273   8.928  1.00  0.00    -0.271 OA
ATOM     43  CB  SER A  16     -37.008  10.964  10.161  1.00  0.00    +0.213 C 
ATOM     44  OG  SER A  16     -36.987  12.357   9.906  1.00  0.00    -0.218 OA
ATOM     45  N   ASP A  17     -40.323  11.071  10.638  1.00  0.00    -0.196 N 
ATOM     46  CA  ASP A  17     -41.145  12.142  11.196  1.00  0.00    +0.184 C 
ATOM     47  C   ASP A  17     -40.363  12.956  12.214  1.00  0.00    +0.262 C 
ATOM     48  O   ASP A  17     -40.470  14.181  12.249  1.00  0.00    -0.271 OA
ATOM     49  CB  ASP A  17     -42.397  11.581  11.849  1.00  0.00    +0.145 C 
ATOM     50  CG  ASP A  17     -43.369  12.661  12.299  1.00  0.00    +0.367 C 
ATOM     51  OD1 ASP A  17     -43.063  13.861  12.136  1.00  0.00    -0.246 OA
ATOM     52  OD2 ASP A  17     -44.447  12.305  12.820  1.00  0.00    -0.246 OA
ATOM     53  N   ALA A  18     -39.577  12.276  13.044  1.00  0.00    -0.196 N 
ATOM     54  CA  ALA A  18     -39.569  12.549  14.478  1.00  0.00    +0.173 C 
ATOM     55  C   ALA A  18     -38.156  12.799  14.979  1.00  0.00    +0.262 C 
ATOM     56  O   ALA A  18     -37.213  12.142  14.541  1.00  0.00    -0.271 OA
ATOM     57  CB  ALA A  18     -40.185  11.394  15.250  1.00  0.00    +0.033 C 
ATOM     58  N   ILE A  19     -38.008  13.748  15.899  1.00  0.00    -0.196 N 
ATOM     59  CA  ILE A  19     -37.193  13.533  17.090  1.00  0.00    +0.173 C 
ATOM     60  C   ILE A  19     -38.090  13.429  18.313  1.00  0.00    +0.262 C 
ATOM     61  O   ILE A  19     -38.996  14.241  18.496  1.00  0.00    -0.271 OA
ATOM     62  CB  ILE A  19     -36.182  14.649  17.296  1.00  0.00    +0.029 C 
ATOM     63  CG1 ILE A  19     -35.366  14.879  16.026  1.00  0.00    +0.002 C 
ATOM     64  CG2 ILE A  19     -35.240  14.309  18.448  1.00  0.00    +0.002 C 
ATOM     65  CD1 ILE A  19     -34.240  15.887  16.189  1.00  0.00    +0.000 C 
ATOM     66  N   ARG A  20     -37.840  12.428  19.153  1.00  0.00    -0.196 N 
ATOM     67  CA  ARG A  20     -38.041  12.573  20.591  1.00  0.00    +0.173 C 
ATOM     68  C   ARG A  20     -36.891  13.337  21.227  1.00  0.00    +0.262 C 
ATOM     69  O   ARG A  20     -35.729  13.109  20.894  1.00  0.00    -0.271 OA
ATOM     70  CB  ARG A  20     -38.180  11.216  21.260  1.00  0.00    +0.033 C 
ATOM     71  CG  ARG A  20     -36.915  10.373  21.208  1.00  0.00    +0.029 C 
ATOM     72  CD  ARG A  20     -37.074   9.069  21.971  1.00  0.00    +0.129 C 
ATOM     73  NE  ARG A  20     -35.780   8.498  22.337  1.00  0.00    -0.234 NA
ATOM     74  CZ  ARG A  20     -35.204   7.469  21.721  1.00  0.00    +0.284 C 
ATOM     75  NH1 ARG A  20     -35.776   6.908  20.660  1.00  0.00    -0.104 N 
ATOM     76  NH2 ARG A  20     -34.044   6.999  22.173  1.00  0.00    -0.104 N 
ATOM     77  N   ARG A  21     -37.213  14.246  22.143  1.00  0.00    -0.194 N 
ATOM     78  CA  ARG A  21     -36.240  14.713  23.126  1.00  0.00    +0.198 C 
ATOM     79  C   ARG A  21     -36.268  13.846  24.374  1.00  0.00    +0.384 C 
ATOM     80  O   ARG A  21     -35.316  13.840  25.152  1.00  0.00    -0.244 OA
ATOM     81  CB  ARG A  21     -36.505  16.160  23.507  1.00  0.00    +0.035 C 
ATOM     82  CG  ARG A  21     -36.017  17.166  22.480  1.00  0.00    +0.029 C 
ATOM     83  CD  ARG A  21     -36.987  17.305  21.318  1.00  0.00    +0.129 C 
ATOM     84  NE  ARG A  21     -36.606  18.393  20.425  1.00  0.00    -0.234 NA
ATOM     85  CZ  ARG A  21     -36.867  18.431  19.120  1.00  0.00    +0.284 C 
ATOM     86  NH1 ARG A  21     -36.595  17.385  18.345  1.00  0.00    -0.104 N 
ATOM     87  NH2 ARG A  21     -37.406  19.524  18.589  1.00  0.00    -0.104 N 
ATOM     88  OXT ARG A  21     -37.243  13.138  24.621  1.00  0.00    -0.244 OA
ATOM     89  H   PHE A  11     -33.142   3.376  -1.117  1.00  0.00    +0.000 HD
ATOM     90  H   PHE A  12     -36.183   2.142  -0.487  1.00  0.00    +0.000 HD
ATOM     91  H   ALA A  13     -36.427   2.696   1.602  1.00  0.00    +0.000 HD
ATOM     92  H   GLY A  14     -38.893   4.157   4.943  1.00  0.00    +0.000 HD
ATOM     93  H   SER A  15     -40.445   8.343   4.892  1.00  0.00    +0.000 HD
ATOM     94  H   SER A  15     -41.222  10.064   7.643  1.00  0.00    +0.000 HD
ATOM     95  H   SER A  16     -37.214  10.174   7.749  1.00  0.00    +0.000 HD
ATOM     96  H   SER A  16     -36.995  12.511   8.948  1.00  0.00    +0.000 HD
ATOM     97  H   ASP A  17     -40.439  10.151  10.971  1.00  0.00    +0.000 HD
ATOM     98  H   ASP A  17     -42.244  14.087  11.741  1.00  0.00    +0.000 HD
ATOM     99  H   ALA A  18     -38.987  11.575  12.684  1.00  0.00    +0.000 HD
ATOM    100  H   ILE A  19     -38.457  14.615  15.774  1.00  0.00    +0.000 HD
ATOM    101  H   ARG A  20     -37.512  11.570  18.796  1.00  0.00    +0.000 HD
ATOM    102  H   ARG A  20     -36.634   7.254  20.323  1.00  0.00    +0.000 HD
ATOM    103  H   ARG A  20     -35.341   6.147  20.211  1.00  0.00    +0.000 HD
ATOM    104  H   ARG A  20     -33.618   7.412  22.958  1.00  0.00    +0.000 HD
ATOM    105  H   ARG A  20     -33.613   6.238  21.721  1.00  0.00    +0.000 HD
ATOM    106  H   ARG A  21     -38.127  14.611  22.159  1.00  0.00    +0.000 HD
ATOM    107  H   ARG A  21     -34.566  14.374  24.979  1.00  0.00    +0.000 HD
ATOM    108  H   ARG A  21     -36.196  16.574  18.734  1.00  0.00    +0.000 HD
ATOM    109  H   ARG A  21     -36.794  17.423  17.381  1.00  0.00    +0.000 HD
ATOM    110  H   ARG A  21     -37.608  20.301  19.160  1.00  0.00    +0.000 HD
ATOM    111  H   ARG A  21     -37.602  19.558  17.625  1.00  0.00    +0.000 HD
ATOM      1  CB  VAL A   5     -30.053   2.223  -6.036  1.00  0.00    +0.000 C 
ATOM      2  CG1 VAL A   5     -31.271   1.309  -6.152  1.00  0.00    +0.000 C 
ATOM      3  CG2 VAL A   5     -30.157   3.287  -7.126  1.00  0.00    +0.000 C 
ATOM      1  O   VAL A  10     -33.725   2.023  -1.623  1.00  0.00    +0.000 OA
ATOM      2  H   VAL A  10     -34.219   2.844  -1.775  1.00  0.00    +0.000 HD
ATOM      3  H   VAL A  10     -33.697   1.833  -0.672  1.00  0.00    +0.000 HD
ENDROOT
TORSDOF 0
