REMARK  Name = /var/folders/yp/yjbh3p597675h2qddgqr02y00000gn/T/tmp33fpn5sq.pdb
REMARK     285 UNITARY VALUES FOR THE UNIT CELL AUTOMATICALLY SET
REMARK     285 BY MDANALYSIS PDBWRITER BECAUSE UNIT CELL INFORMATION
REMARK     285 WAS MISSING.
REMARK     285 PROTEIN DATA BANK CONVENTIONS REQUIRE THAT
REMARK     285 CRYST1 RECORD IS INCLUDED, BUT THE VALUES ON
REMARK     285 THIS RECORD ARE MEANINGLESS.
REMARK     285 UNITARY VALUES FOR THE UNIT CELL AUTOMATICALLY SET
REMARK     285 BY MDANALYSIS PDBWRITER BECAUSE UNIT CELL INFORMATION
REMARK     285 WAS MISSING.
REMARK     285 PROTEIN DATA BANK CONVENTIONS REQUIRE THAT
REMARK     285 CRYST1 RECORD IS INCLUDED, BUT THE VALUES ON
REMARK     285 THIS RECORD ARE MEANINGLESS.
REMARK                            x       y       z     vdW  Elec       q    Type
REMARK                         _______ _______ _______ _____ _____    ______ ____
ROOT
ATOM      1  N   MET A   1       2.241   8.806 -23.223  1.00  0.00    -0.123 NA
ATOM      2  CA  MET A   1       2.280   7.485 -23.843  1.00  0.00    +0.170 C 
ATOM      3  C   MET A   1       1.052   7.254 -24.709  1.00  0.00    +0.259 C 
ATOM      4  O   MET A   1      -0.006   7.829 -24.457  1.00  0.00    -0.272 OA
ATOM      5  CB  MET A   1       2.372   6.393 -22.789  1.00  0.00    +0.040 C 
ATOM      6  CG  MET A   1       1.032   6.037 -22.165  1.00  0.00    +0.060 C 
ATOM      7  SD  MET A   1      -0.116   7.435 -22.125  1.00  0.00    -0.139 S 
ATOM      8  CE  MET A   1      -1.006   7.087 -20.612  1.00  0.00    +0.069 C 
ATOM      9  N   LYS A   2       1.190   6.411 -25.727  1.00  0.00    -0.197 N 
ATOM     10  CA  LYS A   2       0.156   6.278 -26.749  1.00  0.00    +0.173 C 
ATOM     11  C   LYS A   2      -1.104   5.652 -26.174  1.00  0.00    +0.262 C 
ATOM     12  O   LYS A   2      -1.048   4.588 -25.561  1.00  0.00    -0.271 OA
ATOM     13  CB  LYS A   2       0.653   5.439 -27.916  1.00  0.00    +0.031 C 
ATOM     14  CG  LYS A   2      -0.215   5.540 -29.159  1.00  0.00    +0.009 C 
ATOM     15  CD  LYS A   2       0.302   4.655 -30.281  1.00  0.00    +0.049 C 
ATOM     16  CE  LYS A   2      -0.782   4.176 -31.134  1.00  0.00    +0.096 C 
ATOM     17  NZ  LYS A   2      -0.861   4.376 -32.446  1.00  0.00    -0.151 NA
ATOM     18  N   GLN A   3      -2.241   6.313 -26.372  1.00  0.00    -0.196 N 
ATOM     19  CA  GLN A   3      -3.529   5.624 -26.372  1.00  0.00    +0.173 C 
ATOM     20  C   GLN A   3      -3.856   5.075 -27.751  1.00  0.00    +0.262 C 
ATOM     21  O   GLN A   3      -3.937   5.829 -28.720  1.00  0.00    -0.271 OA
ATOM     22  CB  GLN A   3      -4.641   6.557 -25.919  1.00  0.00    +0.041 C 
ATOM     23  CG  GLN A   3      -5.172   7.458 -27.023  1.00  0.00    +0.091 C 
ATOM     24  CD  GLN A   3      -6.500   8.104 -26.668  1.00  0.00    +0.261 C 
ATOM     25  OE1 GLN A   3      -7.403   8.207 -27.512  1.00  0.00    -0.272 OA
ATOM     26  NE2 GLN A   3      -6.633   8.542 -25.420  1.00  0.00    -0.088 N 
ATOM     27  N   ALA A   4      -4.043   3.762 -27.841  1.00  0.00    -0.196 N 
ATOM     28  CA  ALA A   4      -5.209   3.204 -28.521  1.00  0.00    +0.173 C 
ATOM     29  C   ALA A   4      -6.485   3.507 -27.753  1.00  0.00    +0.262 C 
ATOM     30  O   ALA A   4      -6.475   3.581 -26.525  1.00  0.00    -0.271 OA
ATOM     31  CB  ALA A   4      -5.065   1.701 -28.696  1.00  0.00    +0.033 C 
ATOM     32  N   VAL A   5      -7.588   3.681 -28.475  1.00  0.00    -0.196 N 
ATOM     33  CA  VAL A   5      -8.829   2.986 -28.147  1.00  0.00    +0.173 C 
ATOM     34  C   VAL A   5      -8.722   1.523 -28.545  1.00  0.00    +0.262 C 
ATOM     35  O   VAL A   5      -8.205   1.204 -29.615  1.00  0.00    -0.271 OA
ATOM     36  CB  VAL A   5     -10.031   3.612 -28.838  1.00  0.00    +0.029 C 
ATOM     37  CG1 VAL A   5      -9.886   5.130 -28.906  1.00  0.00    +0.004 C 
ATOM     38  CG2 VAL A   5     -10.158   3.086 -30.266  1.00  0.00    +0.002 C 
ATOM     39  N   ASN A   6      -9.209   0.634 -27.685  1.00  0.00    -0.196 N 
ATOM     40  CA  ASN A   6     -10.643   0.373 -27.592  1.00  0.00    +0.182 C 
ATOM     41  C   ASN A   6     -11.382   1.540 -26.957  1.00  0.00    +0.262 C 
ATOM     42  O   ASN A   6     -11.653   2.540 -27.618  1.00  0.00    -0.271 OA
ATOM     43  CB  ASN A   6     -10.915  -0.893 -26.796  1.00  0.00    +0.120 C 
ATOM     44  CG  ASN A   6     -10.167  -2.098 -27.341  1.00  0.00    +0.263 C 
ATOM     45  OD1 ASN A   6     -10.411  -2.538 -28.464  1.00  0.00    -0.272 OA
ATOM     46  ND2 ASN A   6      -9.249  -2.637 -26.544  1.00  0.00    -0.088 N 
ATOM     47  N   ALA A   7     -11.704   1.413 -25.673  1.00  0.00    -0.196 N 
ATOM     48  CA  ALA A   7     -12.947   1.968 -25.144  1.00  0.00    +0.173 C 
ATOM     49  C   ALA A   7     -12.992   3.477 -25.322  1.00  0.00    +0.262 C 
ATOM     50  O   ALA A   7     -14.053   4.045 -25.576  1.00  0.00    -0.271 OA
ATOM     51  CB  ALA A   7     -13.105   1.627 -23.671  1.00  0.00    +0.033 C 
ATOM     52  N   LEU A   8     -11.840   4.128 -25.187  1.00  0.00    -0.196 N 
ATOM     53  CA  LEU A   8     -11.742   5.340 -24.379  1.00  0.00    +0.173 C 
ATOM     54  C   LEU A   8     -11.618   6.571 -25.264  1.00  0.00    +0.262 C 
ATOM     55  O   LEU A   8     -11.905   7.685 -24.827  1.00  0.00    -0.271 OA
ATOM     56  CB  LEU A   8     -10.546   5.268 -23.441  1.00  0.00    +0.031 C 
ATOM     57  CG  LEU A   8     -10.498   6.320 -22.331  1.00  0.00    +0.002 C 
ATOM     58  CD1 LEU A   8      -9.054   6.614 -21.945  1.00  0.00    +0.000 C 
ATOM     59  CD2 LEU A   8     -10.977   5.729 -21.011  1.00  0.00    +0.000 C 
ATOM     60  N   LEU A   9     -11.192   6.370 -26.507  1.00  0.00    -0.196 N 
ATOM     61  CA  LEU A   9     -10.543   7.433 -27.269  1.00  0.00    +0.173 C 
ATOM     62  C   LEU A   9     -11.568   8.258 -28.030  1.00  0.00    +0.262 C 
ATOM     63  O   LEU A   9     -11.227   9.273 -28.636  1.00  0.00    -0.271 OA
ATOM     64  CB  LEU A   9      -9.530   6.856 -28.244  1.00  0.00    +0.029 C 
ATOM     65  CG  LEU A   9      -8.191   6.421 -27.646  1.00  0.00    +0.002 C 
ATOM     66  CD1 LEU A   9      -7.262   5.915 -28.743  1.00  0.00    +0.000 C 
ATOM     67  CD2 LEU A   9      -8.352   5.122 -26.861  1.00  0.00    +0.000 C 
ATOM     68  N   VAL A  10     -12.825   7.825 -28.001  1.00  0.00    -0.196 N 
ATOM     69  CA  VAL A  10     -13.835   8.359 -28.909  1.00  0.00    +0.173 C 
ATOM     70  C   VAL A  10     -14.864   9.154 -28.122  1.00  0.00    +0.262 C 
ATOM     71  O   VAL A  10     -15.281   8.742 -27.041  1.00  0.00    -0.271 OA
ATOM     72  CB  VAL A  10     -14.532   7.258 -29.691  1.00  0.00    +0.029 C 
ATOM     73  CG1 VAL A  10     -15.185   7.823 -30.951  1.00  0.00    +0.002 C 
ATOM     74  CG2 VAL A  10     -13.529   6.191 -30.118  1.00  0.00    +0.002 C 
ATOM     75  N   PHE A  11     -15.278  10.297 -28.666  1.00  0.00    -0.196 N 
ATOM     76  CA  PHE A  11     -16.388  11.052 -28.092  1.00  0.00    +0.177 C 
ATOM     77  C   PHE A  11     -17.718  10.414 -28.454  1.00  0.00    +0.262 C 
ATOM     78  O   PHE A  11     -18.094  10.374 -29.624  1.00  0.00    -0.271 OA
ATOM     79  CB  PHE A  11     -16.369  12.494 -28.578  1.00  0.00    +0.057 C 
ATOM     80  CG  PHE A  11     -17.315  13.393 -27.841  1.00  0.00    -0.020 A 
ATOM     81  CD1 PHE A  11     -18.685  13.291 -28.058  1.00  0.00    -0.004 A 
ATOM     82  CE1 PHE A  11     -19.561  14.125 -27.374  1.00  0.00    -0.000 A 
ATOM     83  CD2 PHE A  11     -16.824  14.330 -26.939  1.00  0.00    -0.004 A 
ATOM     84  CE2 PHE A  11     -17.702  15.164 -26.255  1.00  0.00    -0.000 A 
ATOM     85  CZ  PHE A  11     -19.070  15.062 -26.473  1.00  0.00    -0.000 A 
ATOM     86  N   PHE A  12     -18.431   9.911 -27.450  1.00  0.00    -0.196 N 
ATOM     87  CA  PHE A  12     -19.863  10.170 -27.330  1.00  0.00    +0.173 C 
ATOM     88  C   PHE A  12     -20.125  11.315 -26.365  1.00  0.00    +0.262 C 
ATOM     89  O   PHE A  12     -20.235  12.467 -26.780  1.00  0.00    -0.271 OA
ATOM     90  CB  PHE A  12     -20.600   8.929 -26.856  1.00  0.00    +0.032 C 
ATOM     91  CG  PHE A  12     -20.374   7.721 -27.718  1.00  0.00    +0.042 C 
ATOM     92  CD1 PHE A  12     -20.020   7.876 -29.053  1.00  0.00    -0.028 C 
ATOM     93  CE1 PHE A  12     -19.810   6.759 -29.851  1.00  0.00    -0.013 C 
ATOM     94  CD2 PHE A  12     -20.517   6.447 -27.180  1.00  0.00    +0.056 C 
ATOM     95  CE2 PHE A  12     -20.307   5.329 -27.978  1.00  0.00    +0.106 C 
ATOM     96  CZ  PHE A  12     -19.955   5.485 -29.314  1.00  0.00    +0.099 C 
ATOM     97  N   ALA A  13     -20.224  10.998 -25.077  1.00  0.00    -0.196 N 
ATOM     98  CA  ALA A  13     -20.969   9.819 -24.640  1.00  0.00    +0.173 C 
ATOM     99  C   ALA A  13     -22.442   9.940 -24.993  1.00  0.00    +0.262 C 
ATOM    100  O   ALA A  13     -23.216   9.011 -24.768  1.00  0.00    -0.271 OA
ATOM    101  CB  ALA A  13     -20.821   9.616 -23.140  1.00  0.00    +0.033 C 
ATOM    102  N   GLY A  14     -22.830  11.086 -25.546  1.00  0.00    -0.194 N 
ATOM    103  CA  GLY A  14     -23.565  12.088 -24.782  1.00  0.00    +0.199 C 
ATOM    104  C   GLY A  14     -25.051  12.028 -25.095  1.00  0.00    +0.219 C 
ATOM    105  O   GLY A  14     -25.493  11.171 -25.859  1.00  0.00    -0.460 OA
ATOM    106  N   SER A  15     -25.823  12.936 -24.504  1.00  0.00    -0.230 NA
ATOM    107  CA  SER A  15     -27.195  13.171 -24.946  1.00  0.00    +0.216 C 
ATOM    108  C   SER A  15     -27.411  14.625 -25.327  1.00  0.00    +0.267 C 
ATOM    109  O   SER A  15     -26.680  15.506 -24.873  1.00  0.00    -0.271 OA
ATOM    110  CB  SER A  15     -28.182  12.780 -23.858  1.00  0.00    +0.216 C 
ATOM    111  OG  SER A  15     -27.512  12.551 -22.630  1.00  0.00    -0.218 OA
ATOM    112  N   SER A  16     -28.415  14.880 -26.162  1.00  0.00    -0.193 N 
ATOM    113  CA  SER A  16     -29.123  13.805 -26.850  1.00  0.00    +0.205 C 
ATOM    114  C   SER A  16     -28.153  12.805 -27.455  1.00  0.00    +0.264 C 
ATOM    115  O   SER A  16     -26.958  13.077 -27.561  1.00  0.00    -0.271 OA
ATOM    116  CB  SER A  16     -30.019  14.367 -27.942  1.00  0.00    +0.213 C 
ATOM    117  OG  SER A  16     -29.441  14.162 -29.220  1.00  0.00    -0.218 OA
ATOM    118  N   ASP A  17     -28.666  11.643 -27.853  1.00  0.00    -0.196 N 
ATOM    119  CA  ASP A  17     -29.788  11.028 -27.148  1.00  0.00    +0.184 C 
ATOM    120  C   ASP A  17     -29.330  10.390 -25.847  1.00  0.00    +0.262 C 
ATOM    121  O   ASP A  17     -30.153  10.002 -25.019  1.00  0.00    -0.271 OA
ATOM    122  CB  ASP A  17     -30.464   9.980 -28.017  1.00  0.00    +0.145 C 
ATOM    123  CG  ASP A  17     -29.870   9.890 -29.413  1.00  0.00    +0.367 C 
ATOM    124  OD1 ASP A  17     -28.965  10.688 -29.743  1.00  0.00    -0.246 OA
ATOM    125  OD2 ASP A  17     -30.311   9.015 -30.188  1.00  0.00    -0.246 OA
ATOM    126  N   ALA A  18     -28.018  10.279 -25.667  1.00  0.00    -0.192 N 
ATOM    127  CA  ALA A  18     -27.145   9.773 -26.722  1.00  0.00    +0.216 C 
ATOM    128  C   ALA A  18     -26.233   8.675 -26.199  1.00  0.00    +0.265 C 
ATOM    129  O   ALA A  18     -26.046   8.542 -24.991  1.00  0.00    -0.271 OA
ATOM    130  CB  ALA A  18     -26.304  10.894 -27.311  1.00  0.00    +0.238 C 
ATOM    131  N   ILE A  19     -25.665   7.888 -27.107  1.00  0.00    -0.196 N 
ATOM    132  CA  ILE A  19     -24.441   7.147 -26.814  1.00  0.00    +0.173 C 
ATOM    133  C   ILE A  19     -23.288   7.720 -27.623  1.00  0.00    +0.261 C 
ATOM    134  O   ILE A  19     -23.457   8.069 -28.791  1.00  0.00    -0.271 OA
ATOM    135  CB  ILE A  19     -24.587   5.665 -27.116  1.00  0.00    +0.029 C 
ATOM    136  CG1 ILE A  19     -25.985   5.175 -26.741  1.00  0.00    +0.002 C 
ATOM    137  CG2 ILE A  19     -23.543   4.859 -26.347  1.00  0.00    +0.002 C 
ATOM    138  CD1 ILE A  19     -26.153   3.667 -26.834  1.00  0.00    +0.000 C 
ATOM    139  N   ARG A  20     -22.115   7.818 -27.004  1.00  0.00    -0.205 N 
ATOM    140  CA  ARG A  20     -20.878   7.384 -27.647  1.00  0.00    +0.102 C 
ATOM    141  C   ARG A  20     -20.846   5.873 -27.804  1.00  0.00    +0.170 C 
ATOM    142  O   ARG A  20     -21.309   5.143 -26.928  1.00  0.00    -0.222 OA
ATOM    143  CB  ARG A  20     -19.666   7.837 -26.850  1.00  0.00    +0.010 C 
ATOM    144  CG  ARG A  20     -19.642   7.320 -25.421  1.00  0.00    +0.027 C 
ATOM    145  CD  ARG A  20     -18.293   6.718 -25.061  1.00  0.00    +0.129 C 
ATOM    146  NE  ARG A  20     -18.189   6.447 -23.631  1.00  0.00    -0.234 NA
ATOM    147  CZ  ARG A  20     -18.032   5.238 -23.097  1.00  0.00    +0.284 C 
ATOM    148  NH1 ARG A  20     -17.887   4.168 -23.873  1.00  0.00    -0.104 N 
ATOM    149  NH2 ARG A  20     -18.021   5.101 -21.774  1.00  0.00    -0.104 N 
ATOM    150  N   ARG A  21     -20.301   5.400 -28.921  1.00  0.00    -0.259 NA
ATOM    151  CA  ARG A  21     -20.244   3.967 -29.194  1.00  0.00    +0.162 C 
ATOM    152  C   ARG A  21     -18.993   3.348 -28.594  1.00  0.00    +0.379 C 
ATOM    153  O   ARG A  21     -18.915   3.139 -27.385  1.00  0.00    -0.244 OA
ATOM    154  CB  ARG A  21     -20.280   3.697 -30.688  1.00  0.00    +0.030 C 
ATOM    155  CG  ARG A  21     -19.152   4.364 -31.459  1.00  0.00    +0.028 C 
ATOM    156  CD  ARG A  21     -18.694   3.514 -32.635  1.00  0.00    +0.129 C 
ATOM    157  NE  ARG A  21     -17.419   2.858 -32.362  1.00  0.00    -0.234 NA
ATOM    158  CZ  ARG A  21     -17.234   1.541 -32.334  1.00  0.00    +0.284 C 
ATOM    159  NH1 ARG A  21     -17.058   0.858 -33.462  1.00  0.00    -0.104 N 
ATOM    160  NH2 ARG A  21     -17.228   0.902 -31.168  1.00  0.00    -0.104 N 
ATOM    161  OXT ARG A  21     -18.041   3.046 -29.312  1.00  0.00    -0.244 OA
ATOM    162  H   MET A   1       3.073   8.937 -22.649  1.00  0.00    +0.000 HD
ATOM    163  H   MET A   1       1.409   8.882 -22.637  1.00  0.00    +0.000 HD
ATOM    164  H   LYS A   2       2.007   5.866 -25.794  1.00  0.00    +0.000 HD
ATOM    165  H   LYS A   2      -0.154   4.880 -32.911  1.00  0.00    +0.000 HD
ATOM    166  H   GLN A   3      -2.214   7.285 -26.522  1.00  0.00    +0.000 HD
ATOM    167  H   GLN A   3      -5.890   8.440 -24.781  1.00  0.00    +0.000 HD
ATOM    168  H   GLN A   3      -7.472   8.969 -25.135  1.00  0.00    +0.000 HD
ATOM    169  H   ALA A   4      -3.382   3.153 -27.440  1.00  0.00    +0.000 HD
ATOM    170  H   VAL A   5      -7.567   4.291 -29.248  1.00  0.00    +0.000 HD
ATOM    171  H   ASN A   6      -8.589   0.141 -27.100  1.00  0.00    +0.000 HD
ATOM    172  H   ASN A   6      -9.086  -2.253 -25.653  1.00  0.00    +0.000 HD
ATOM    173  H   ASN A   6      -8.733  -3.419 -26.845  1.00  0.00    +0.000 HD
ATOM    174  H   ALA A   7     -11.093   0.936 -25.067  1.00  0.00    +0.000 HD
ATOM    175  H   LEU A   8     -11.037   3.786 -25.642  1.00  0.00    +0.000 HD
ATOM    176  H   LEU A   9     -11.317   5.487 -26.923  1.00  0.00    +0.000 HD
ATOM    177  H   VAL A  10     -13.080   7.129 -27.352  1.00  0.00    +0.000 HD
ATOM    178  H   PHE A  11     -14.826  10.640 -29.471  1.00  0.00    +0.000 HD
ATOM    179  H   PHE A  12     -17.983   9.354 -26.773  1.00  0.00    +0.000 HD
ATOM    180  H   ALA A  13     -19.788  11.569 -24.406  1.00  0.00    +0.000 HD
ATOM    181  H   GLY A  14     -22.617  11.262 -26.491  1.00  0.00    +0.000 HD
ATOM    182  H   SER A  15     -27.059  13.362 -22.353  1.00  0.00    +0.000 HD
ATOM    183  H   SER A  16     -28.686  15.814 -26.319  1.00  0.00    +0.000 HD
ATOM    184  H   SER A  16     -28.585  14.615 -29.265  1.00  0.00    +0.000 HD
ATOM    185  H   ASP A  17     -28.283  11.190 -28.639  1.00  0.00    +0.000 HD
ATOM    186  H   ASP A  17     -30.990   8.435 -29.903  1.00  0.00    +0.000 HD
ATOM    187  H   ALA A  18     -27.626  10.544 -24.803  1.00  0.00    +0.000 HD
ATOM    188  H   ILE A  19     -26.078   7.802 -27.997  1.00  0.00    +0.000 HD
ATOM    189  H   ARG A  20     -22.081   8.191 -26.093  1.00  0.00    +0.000 HD
ATOM    190  H   ARG A  20     -20.604   4.890 -26.312  1.00  0.00    +0.000 HD
ATOM    191  H   ARG A  20     -17.771   3.279 -23.468  1.00  0.00    +0.000 HD
ATOM    192  H   ARG A  20     -17.894   4.266 -24.852  1.00  0.00    +0.000 HD
ATOM    193  H   ARG A  20     -17.906   4.209 -21.372  1.00  0.00    +0.000 HD
ATOM    194  H   ARG A  20     -18.128   5.890 -21.196  1.00  0.00    +0.000 HD
ATOM    195  H   ARG A  21     -16.922  -0.117 -33.431  1.00  0.00    +0.000 HD
ATOM    196  H   ARG A  21     -17.063   1.327 -34.327  1.00  0.00    +0.000 HD
ATOM    197  H   ARG A  21     -17.092  -0.073 -31.142  1.00  0.00    +0.000 HD
ATOM    198  H   ARG A  21     -17.359   1.404 -30.331  1.00  0.00    +0.000 HD
ATOM    199  H   ARG A  21     -18.084   3.199 -30.235  1.00  0.00    +0.000 HD
ENDROOT
TORSDOF 0
