REMARK  Name = /var/folders/yp/yjbh3p597675h2qddgqr02y00000gn/T/tmpb6ib7mk0.pdb
REMARK     285 UNITARY VALUES FOR THE UNIT CELL AUTOMATICALLY SET
REMARK     285 BY MDANALYSIS PDBWRITER BECAUSE UNIT CELL INFORMATION
REMARK     285 WAS MISSING.
REMARK     285 PROTEIN DATA BANK CONVENTIONS REQUIRE THAT
REMARK     285 CRYST1 RECORD IS INCLUDED, BUT THE VALUES ON
REMARK     285 THIS RECORD ARE MEANINGLESS.
REMARK     285 UNITARY VALUES FOR THE UNIT CELL AUTOMATICALLY SET
REMARK     285 BY MDANALYSIS PDBWRITER BECAUSE UNIT CELL INFORMATION
REMARK     285 WAS MISSING.
REMARK     285 PROTEIN DATA BANK CONVENTIONS REQUIRE THAT
REMARK     285 CRYST1 RECORD IS INCLUDED, BUT THE VALUES ON
REMARK     285 THIS RECORD ARE MEANINGLESS.
REMARK                            x       y       z     vdW  Elec       q    Type
REMARK                         _______ _______ _______ _____ _____    ______ ____
REMARK  Name = /var/folders/yp/yjbh3p597675h2qddgqr02y00000gn/T/tmpb6ib7mk0.pdb
REMARK     285 UNITARY VALUES FOR THE UNIT CELL AUTOMATICALLY SET
REMARK     285 BY MDANALYSIS PDBWRITER BECAUSE UNIT CELL INFORMATION
REMARK     285 WAS MISSING.
REMARK     285 PROTEIN DATA BANK CONVENTIONS REQUIRE THAT
REMARK     285 CRYST1 RECORD IS INCLUDED, BUT THE VALUES ON
REMARK     285 THIS RECORD ARE MEANINGLESS.
REMARK     285 UNITARY VALUES FOR THE UNIT CELL AUTOMATICALLY SET
REMARK     285 BY MDANALYSIS PDBWRITER BECAUSE UNIT CELL INFORMATION
REMARK     285 WAS MISSING.
REMARK     285 PROTEIN DATA BANK CONVENTIONS REQUIRE THAT
REMARK     285 CRYST1 RECORD IS INCLUDED, BUT THE VALUES ON
REMARK     285 THIS RECORD ARE MEANINGLESS.
REMARK                            x       y       z     vdW  Elec       q    Type
REMARK                         _______ _______ _______ _____ _____    ______ ____
ROOT
ATOM      1  N   MET A   1     -10.449  33.794  -7.734  1.00  0.00    -0.123 NA
ATOM      2  CA  MET A   1      -9.572  32.649  -7.960  1.00  0.00    +0.170 C 
ATOM      3  C   MET A   1     -10.013  31.858  -9.181  1.00  0.00    +0.259 C 
ATOM      4  O   MET A   1     -11.194  31.847  -9.523  1.00  0.00    -0.272 OA
ATOM      5  CB  MET A   1      -9.548  31.735  -6.745  1.00  0.00    +0.041 C 
ATOM      6  CG  MET A   1     -10.834  30.949  -6.548  1.00  0.00    +0.071 C 
ATOM      7  SD  MET A   1     -10.729  29.263  -7.197  1.00  0.00    -0.082 S 
ATOM      8  CE  MET A   1      -9.488  29.476  -8.469  1.00  0.00    +0.176 C 
ATOM      9  N   LYS A   2      -9.065  31.196  -9.837  1.00  0.00    -0.202 N 
ATOM     10  CA  LYS A   2      -9.394  30.109 -10.754  1.00  0.00    +0.139 C 
ATOM     11  C   LYS A   2      -9.495  28.783 -10.017  1.00  0.00    +0.210 C 
ATOM     12  O   LYS A   2      -8.662  28.477  -9.167  1.00  0.00    -0.335 OA
ATOM     13  CB  LYS A   2      -8.353  29.998 -11.857  1.00  0.00    +0.026 C 
ATOM     14  CG  LYS A   2      -8.749  29.059 -12.984  1.00  0.00    +0.008 C 
ATOM     15  CD  LYS A   2      -7.675  28.977 -14.055  1.00  0.00    +0.049 C 
ATOM     16  CE  LYS A   2      -8.251  28.869 -15.392  1.00  0.00    +0.096 C 
ATOM     17  NZ  LYS A   2      -7.742  29.428 -16.486  1.00  0.00    -0.151 NA
ATOM     18  N   GLN A   3     -10.517  27.996 -10.343  1.00  0.00    -0.182 NA
ATOM     19  CA  GLN A   3     -10.370  26.931 -11.331  1.00  0.00    +0.156 C 
ATOM     20  C   GLN A   3     -10.277  27.498 -12.738  1.00  0.00    +0.257 C 
ATOM     21  O   GLN A   3     -10.989  28.441 -13.080  1.00  0.00    -0.272 OA
ATOM     22  CB  GLN A   3     -11.535  25.957 -11.253  1.00  0.00    +0.066 C 
ATOM     23  CG  GLN A   3     -11.476  24.847 -12.290  1.00  0.00    +0.198 C 
ATOM     24  CD  GLN A   3     -12.541  23.785 -12.074  1.00  0.00    +0.288 C 
ATOM     25  OE1 GLN A   3     -12.760  23.323 -10.945  1.00  0.00    -0.269 OA
ATOM     26  NE2 GLN A   3     -13.210  23.387 -13.153  1.00  0.00    -0.086 N 
ATOM     27  N   ALA A   4      -9.398  26.925 -13.554  1.00  0.00    -0.204 N 
ATOM     28  CA  ALA A   4      -9.804  26.366 -14.840  1.00  0.00    +0.119 C 
ATOM     29  C   ALA A   4     -10.733  25.178 -14.650  1.00  0.00    +0.209 C 
ATOM     30  O   ALA A   4     -10.680  24.500 -13.624  1.00  0.00    -0.331 OA
ATOM     31  CB  ALA A   4      -8.592  25.939 -15.652  1.00  0.00    +0.026 C 
ATOM     32  N   VAL A   5     -11.585  24.923 -15.638  1.00  0.00    -0.173 NA
ATOM     33  CA  VAL A   5     -11.612  23.623 -16.303  1.00  0.00    +0.168 C 
ATOM     34  C   VAL A   5     -10.424  23.500 -17.242  1.00  0.00    +0.093 C 
ATOM     35  O   VAL A   5     -10.200  24.373 -18.080  1.00  0.00    -0.337 OA
ATOM     36  N   LEU A   8     -11.347  23.269 -17.222  1.00  0.00    -0.231 NA
ATOM     37  CA  LEU A   8     -10.913  24.258 -18.203  1.00  0.00    +0.221 C 
ATOM     38  CB  LEU A   8      -9.865  25.185 -17.607  1.00  0.00    +0.144 C 
ATOM     39  CG  LEU A   8     -10.285  26.644 -17.423  1.00  0.00    +0.031 C 
ATOM     40  CD1 LEU A   8      -9.762  27.180 -16.095  1.00  0.00    +0.026 C 
ATOM     41  CD2 LEU A   8     -11.780  26.741 -17.142  1.00  0.00    +0.003 C 
ATOM     42  H   MET A   1     -10.448  34.391  -8.561  1.00  0.00    +0.000 HD
ATOM     43  H   MET A   1     -10.114  34.325  -6.930  1.00  0.00    +0.000 HD
ATOM     44  H   MET A   1     -10.502  29.305  -8.537  1.00  0.00    +0.000 HD
ATOM     45  H   LYS A   2      -8.121  31.444  -9.703  1.00  0.00    +0.000 HD
ATOM     46  H   LYS A   2      -6.915  29.961 -16.428  1.00  0.00    +0.000 HD
ATOM     47  H   GLN A   3     -11.255  28.610 -10.688  1.00  0.00    +0.000 HD
ATOM     48  H   GLN A   3     -13.004  23.780 -14.032  1.00  0.00    +0.000 HD
ATOM     49  H   GLN A   3     -13.910  22.699 -13.073  1.00  0.00    +0.000 HD
ATOM     50  H   ALA A   4      -8.452  26.877 -13.285  1.00  0.00    +0.000 HD
ATOM     51  H   VAL A   5     -11.400  25.615 -16.365  1.00  0.00    +0.000 HD
ATOM      1  CB  VAL A   5     -12.900  23.410 -17.081  1.00  0.00    +0.143 C 
ATOM      2  CG1 VAL A   5     -13.106  21.929 -17.391  1.00  0.00    +0.041 C 
ATOM      3  CG2 VAL A   5     -14.100  23.893 -16.268  1.00  0.00    +0.174 C 
ATOM      4  N   ASN A   6      -9.664  22.419 -17.104  1.00  0.00    -0.094 NA
ATOM      5  CA  ASN A   6      -9.721  21.322 -18.068  1.00  0.00    +0.249 C 
ATOM      6  C   ASN A   6     -10.989  20.498 -17.901  1.00  0.00    +0.287 C 
ATOM      7  O   ASN A   6     -11.347  19.721 -18.785  1.00  0.00    -0.269 OA
ATOM      8  CB  ASN A   6      -8.507  20.418 -17.935  1.00  0.00    +0.143 C 
ATOM      9  CG  ASN A   6      -8.043  19.860 -19.270  1.00  0.00    +0.265 C 
ATOM     10  OD1 ASN A   6      -8.032  20.565 -20.279  1.00  0.00    -0.271 OA
ATOM     11  ND2 ASN A   6      -7.656  18.589 -19.280  1.00  0.00    -0.088 N 
ATOM     12  N   ALA A   7     -11.666  20.670 -16.770  1.00  0.00    -0.185 NA
ATOM     13  CA  ALA A   7     -12.893  21.462 -16.732  1.00  0.00    +0.029 C 
ATOM     14  C   ALA A   7     -12.623  22.906 -17.122  1.00  0.00    +0.038 C 
ATOM     15  O   ALA A   7     -13.556  23.682 -17.328  1.00  0.00    -0.351 OA
ATOM     16  CB  ALA A   7     -13.520  21.418 -15.349  1.00  0.00    +0.045 C 
ATOM     17  C   LEU A   8     -10.345  23.580 -19.440  1.00  0.00    +0.236 C 
ATOM     18  O   LEU A   8      -9.708  22.533 -19.341  1.00  0.00    -0.316 OA
ATOM     19  N   LEU A   9     -10.577  24.177 -20.606  1.00  0.00    -0.181 NA
ATOM     20  CA  LEU A   9      -9.592  24.146 -21.684  1.00  0.00    +0.153 C 
ATOM     21  C   LEU A   9      -8.472  25.140 -21.425  1.00  0.00    +0.258 C 
ATOM     22  O   LEU A   9      -8.728  26.311 -21.146  1.00  0.00    -0.272 OA
ATOM     23  CB  LEU A   9     -10.247  24.456 -23.021  1.00  0.00    +0.027 C 
ATOM     24  CG  LEU A   9     -10.975  23.294 -23.698  1.00  0.00    +0.002 C 
ATOM     25  CD1 LEU A   9     -11.009  23.502 -25.209  1.00  0.00    +0.000 C 
ATOM     26  CD2 LEU A   9     -12.473  23.364 -23.420  1.00  0.00    +0.000 C 
ATOM     27  N   VAL A  10      -7.228  24.677 -21.516  1.00  0.00    -0.197 N 
ATOM     28  CA  VAL A  10      -6.158  25.484 -22.094  1.00  0.00    +0.173 C 
ATOM     29  C   VAL A  10      -6.232  25.424 -23.611  1.00  0.00    +0.262 C 
ATOM     30  O   VAL A  10      -6.336  24.344 -24.190  1.00  0.00    -0.271 OA
ATOM     31  CB  VAL A  10      -4.786  25.016 -21.634  1.00  0.00    +0.029 C 
ATOM     32  CG1 VAL A  10      -3.700  25.978 -22.114  1.00  0.00    +0.002 C 
ATOM     33  CG2 VAL A  10      -4.726  24.961 -20.111  1.00  0.00    +0.002 C 
ATOM     34  N   PHE A  11      -6.177  26.587 -24.257  1.00  0.00    -0.196 N 
ATOM     35  CA  PHE A  11      -5.627  26.682 -25.606  1.00  0.00    +0.177 C 
ATOM     36  C   PHE A  11      -4.137  26.977 -25.560  1.00  0.00    +0.262 C 
ATOM     37  O   PHE A  11      -3.669  27.700 -24.683  1.00  0.00    -0.271 OA
ATOM     38  CB  PHE A  11      -6.334  27.766 -26.404  1.00  0.00    +0.057 C 
ATOM     39  CG  PHE A  11      -5.440  28.490 -27.367  1.00  0.00    -0.020 A 
ATOM     40  CD1 PHE A  11      -5.236  27.979 -28.644  1.00  0.00    -0.004 A 
ATOM     41  CE1 PHE A  11      -4.408  28.651 -29.535  1.00  0.00    -0.000 A 
ATOM     42  CD2 PHE A  11      -4.819  29.672 -26.983  1.00  0.00    -0.004 A 
ATOM     43  CE2 PHE A  11      -3.991  30.344 -27.875  1.00  0.00    -0.000 A 
ATOM     44  CZ  PHE A  11      -3.785  29.832 -29.151  1.00  0.00    -0.000 A 
ATOM     45  N   PHE A  12      -3.389  26.415 -26.506  1.00  0.00    -0.196 N 
ATOM     46  CA  PHE A  12      -3.955  25.461 -27.456  1.00  0.00    +0.177 C 
ATOM     47  C   PHE A  12      -3.974  24.060 -26.867  1.00  0.00    +0.262 C 
ATOM     48  O   PHE A  12      -2.952  23.572 -26.387  1.00  0.00    -0.271 OA
ATOM     49  CB  PHE A  12      -3.164  25.455 -28.755  1.00  0.00    +0.057 C 
ATOM     50  CG  PHE A  12      -4.016  25.553 -29.985  1.00  0.00    -0.020 A 
ATOM     51  CD1 PHE A  12      -4.522  26.784 -30.386  1.00  0.00    -0.004 A 
ATOM     52  CE1 PHE A  12      -5.311  26.874 -31.524  1.00  0.00    -0.000 A 
ATOM     53  CD2 PHE A  12      -4.299  24.410 -30.726  1.00  0.00    -0.004 A 
ATOM     54  CE2 PHE A  12      -5.088  24.501 -31.866  1.00  0.00    -0.000 A 
ATOM     55  CZ  PHE A  12      -5.595  25.732 -32.266  1.00  0.00    -0.000 A 
ATOM     56  N   ALA A  13      -5.136  23.414 -26.902  1.00  0.00    -0.196 N 
ATOM     57  CA  ALA A  13      -5.412  22.298 -26.002  1.00  0.00    +0.173 C 
ATOM     58  C   ALA A  13      -4.537  21.100 -26.332  1.00  0.00    +0.262 C 
ATOM     59  O   ALA A  13      -4.487  20.134 -25.573  1.00  0.00    -0.271 OA
ATOM     60  CB  ALA A  13      -6.876  21.893 -26.078  1.00  0.00    +0.033 C 
ATOM     61  N   GLY A  14      -3.845  21.161 -27.467  1.00  0.00    -0.194 N 
ATOM     62  CA  GLY A  14      -4.004  20.151 -28.509  1.00  0.00    +0.201 C 
ATOM     63  C   GLY A  14      -2.796  19.229 -28.558  1.00  0.00    +0.264 C 
ATOM     64  O   GLY A  14      -1.898  19.421 -29.375  1.00  0.00    -0.271 OA
ATOM     65  N   SER A  15      -2.773  18.228 -27.682  1.00  0.00    -0.194 N 
ATOM     66  CA  SER A  15      -1.884  17.084 -27.858  1.00  0.00    +0.205 C 
ATOM     67  C   SER A  15      -2.290  16.250 -29.061  1.00  0.00    +0.264 C 
ATOM     68  O   SER A  15      -3.442  16.292 -29.491  1.00  0.00    -0.271 OA
ATOM     69  CB  SER A  15      -1.880  16.212 -26.613  1.00  0.00    +0.213 C 
ATOM     70  OG  SER A  15      -3.109  15.518 -26.482  1.00  0.00    -0.218 OA
ATOM     71  N   SER A  16      -1.345  15.490 -29.607  1.00  0.00    -0.194 N 
ATOM     72  CA  SER A  16      -1.619  14.654 -30.772  1.00  0.00    +0.205 C 
ATOM     73  C   SER A  16      -2.612  13.553 -30.438  1.00  0.00    +0.264 C 
ATOM     74  O   SER A  16      -2.510  12.915 -29.392  1.00  0.00    -0.271 OA
ATOM     75  CB  SER A  16      -0.336  14.036 -31.302  1.00  0.00    +0.213 C 
ATOM     76  OG  SER A  16       0.157  13.054 -30.405  1.00  0.00    -0.218 OA
ATOM     77  N   ASP A  17      -3.576  13.331 -31.329  1.00  0.00    -0.196 N 
ATOM     78  CA  ASP A  17      -4.567  12.277 -31.127  1.00  0.00    +0.184 C 
ATOM     79  C   ASP A  17      -4.027  10.928 -31.575  1.00  0.00    +0.262 C 
ATOM     80  O   ASP A  17      -4.393   9.893 -31.021  1.00  0.00    -0.271 OA
ATOM     81  CB  ASP A  17      -5.849  12.586 -31.884  1.00  0.00    +0.145 C 
ATOM     82  CG  ASP A  17      -6.477  13.908 -31.476  1.00  0.00    +0.367 C 
ATOM     83  OD1 ASP A  17      -6.225  14.379 -30.344  1.00  0.00    -0.246 OA
ATOM     84  OD2 ASP A  17      -7.231  14.482 -32.291  1.00  0.00    -0.246 OA
ATOM     85  N   ALA A  18      -3.157  10.940 -32.581  1.00  0.00    -0.196 N 
ATOM     86  CA  ALA A  18      -3.231   9.961 -33.662  1.00  0.00    +0.173 C 
ATOM     87  C   ALA A  18      -1.903   9.243 -33.842  1.00  0.00    +0.262 C 
ATOM     88  O   ALA A  18      -0.848   9.797 -33.539  1.00  0.00    -0.271 OA
ATOM     89  CB  ALA A  18      -3.630  10.627 -34.969  1.00  0.00    +0.033 C 
ATOM     90  N   ILE A  19      -1.953   8.010 -34.337  1.00  0.00    -0.196 N 
ATOM     91  CA  ILE A  19      -0.758   7.175 -34.422  1.00  0.00    +0.173 C 
ATOM     92  C   ILE A  19      -0.431   6.893 -35.880  1.00  0.00    +0.262 C 
ATOM     93  O   ILE A  19      -1.315   6.546 -36.663  1.00  0.00    -0.271 OA
ATOM     94  CB  ILE A  19      -0.928   5.862 -33.676  1.00  0.00    +0.029 C 
ATOM     95  CG1 ILE A  19      -1.144   6.113 -32.185  1.00  0.00    +0.002 C 
ATOM     96  CG2 ILE A  19       0.302   4.977 -33.868  1.00  0.00    +0.002 C 
ATOM     97  CD1 ILE A  19      -1.137   4.850 -31.339  1.00  0.00    +0.000 C 
ATOM     98  N   ARG A  20       0.838   7.042 -36.246  1.00  0.00    -0.196 N 
ATOM     99  CA  ARG A  20       1.475   6.114 -37.176  1.00  0.00    +0.173 C 
ATOM    100  C   ARG A  20       1.640   4.740 -36.547  1.00  0.00    +0.262 C 
ATOM    101  O   ARG A  20       2.119   4.622 -35.419  1.00  0.00    -0.271 OA
ATOM    102  CB  ARG A  20       2.832   6.635 -37.619  1.00  0.00    +0.033 C 
ATOM    103  CG  ARG A  20       3.765   5.554 -38.137  1.00  0.00    +0.029 C 
ATOM    104  CD  ARG A  20       4.984   6.144 -38.828  1.00  0.00    +0.129 C 
ATOM    105  NE  ARG A  20       6.032   5.146 -39.017  1.00  0.00    -0.234 NA
ATOM    106  CZ  ARG A  20       7.034   4.927 -38.169  1.00  0.00    +0.284 C 
ATOM    107  NH1 ARG A  20       7.182   5.682 -37.084  1.00  0.00    -0.104 N 
ATOM    108  NH2 ARG A  20       7.897   3.943 -38.411  1.00  0.00    -0.104 N 
ATOM    109  N   ARG A  21       1.244   3.698 -37.274  1.00  0.00    -0.194 N 
ATOM    110  CA  ARG A  21       1.590   2.332 -36.897  1.00  0.00    +0.198 C 
ATOM    111  C   ARG A  21       3.034   2.018 -37.252  1.00  0.00    +0.384 C 
ATOM    112  O   ARG A  21       3.590   1.023 -36.790  1.00  0.00    -0.244 OA
ATOM    113  CB  ARG A  21       0.671   1.332 -37.577  1.00  0.00    +0.035 C 
ATOM    114  CG  ARG A  21      -0.751   1.340 -37.039  1.00  0.00    +0.029 C 
ATOM    115  CD  ARG A  21      -1.592   0.230 -37.650  1.00  0.00    +0.129 C 
ATOM    116  NE  ARG A  21      -2.891   0.114 -36.993  1.00  0.00    -0.234 NA
ATOM    117  CZ  ARG A  21      -3.263  -0.902 -36.220  1.00  0.00    +0.284 C 
ATOM    118  NH1 ARG A  21      -2.401  -1.867 -35.909  1.00  0.00    -0.104 N 
ATOM    119  NH2 ARG A  21      -4.507  -0.951 -35.753  1.00  0.00    -0.104 N 
ATOM    120  OXT ARG A  21       3.666   2.755 -38.007  1.00  0.00    -0.244 OA
ATOM    121  H   ASN A   6      -8.805  22.949 -17.243  1.00  0.00    +0.000 HD
ATOM    122  H   ASN A   6      -9.682  22.041 -16.158  1.00  0.00    +0.000 HD
ATOM    123  H   ASN A   6      -7.345  18.175 -20.118  1.00  0.00    +0.000 HD
ATOM    124  H   ASN A   6      -7.680  18.060 -18.450  1.00  0.00    +0.000 HD
ATOM    125  H   LEU A   9     -11.428  23.757 -20.981  1.00  0.00    +0.000 HD
ATOM    126  H   VAL A  10      -7.025  23.772 -21.187  1.00  0.00    +0.000 HD
ATOM    127  H   PHE A  11      -6.516  27.399 -23.816  1.00  0.00    +0.000 HD
ATOM    128  H   PHE A  12      -2.435  26.646 -26.566  1.00  0.00    +0.000 HD
ATOM    129  H   ALA A  13      -5.823  23.694 -27.547  1.00  0.00    +0.000 HD
ATOM    130  H   GLY A  14      -3.214  21.903 -27.607  1.00  0.00    +0.000 HD
ATOM    131  H   SER A  15      -3.369  18.259 -26.899  1.00  0.00    +0.000 HD
ATOM    132  H   SER A  15      -3.835  16.157 -26.405  1.00  0.00    +0.000 HD
ATOM    133  H   SER A  16      -0.440  15.492 -29.218  1.00  0.00    +0.000 HD
ATOM    134  H   SER A  16       0.348  13.465 -29.548  1.00  0.00    +0.000 HD
ATOM    135  H   ASP A  17      -3.622  13.888 -32.139  1.00  0.00    +0.000 HD
ATOM    136  H   ASP A  17      -5.654  13.918 -29.762  1.00  0.00    +0.000 HD
ATOM    137  H   ALA A  18      -2.448  11.622 -32.597  1.00  0.00    +0.000 HD
ATOM    138  H   ILE A  19      -2.815   7.653 -34.653  1.00  0.00    +0.000 HD
ATOM    139  H   ARG A  20       1.359   7.794 -35.882  1.00  0.00    +0.000 HD
ATOM    140  H   ARG A  20       6.546   6.412 -36.902  1.00  0.00    +0.000 HD
ATOM    141  H   ARG A  20       7.927   5.511 -36.463  1.00  0.00    +0.000 HD
ATOM    142  H   ARG A  20       7.792   3.382 -39.213  1.00  0.00    +0.000 HD
ATOM    143  H   ARG A  20       8.640   3.775 -37.788  1.00  0.00    +0.000 HD
ATOM    144  H   ARG A  21       0.706   3.852 -38.083  1.00  0.00    +0.000 HD
ATOM    145  H   ARG A  21       3.123   0.450 -36.214  1.00  0.00    +0.000 HD
ATOM    146  H   ARG A  21      -1.479  -1.833 -36.254  1.00  0.00    +0.000 HD
ATOM    147  H   ARG A  21      -2.685  -2.615 -35.336  1.00  0.00    +0.000 HD
ATOM    148  H   ARG A  21      -5.146  -0.239 -35.981  1.00  0.00    +0.000 HD
ATOM    149  H   ARG A  21      -4.788  -1.700 -35.180  1.00  0.00    +0.000 HD
ENDROOT
TORSDOF 0
