REMARK  Name = /var/folders/yp/yjbh3p597675h2qddgqr02y00000gn/T/tmpqzj71_1n.pdb
REMARK     285 UNITARY VALUES FOR THE UNIT CELL AUTOMATICALLY SET
REMARK     285 BY MDANALYSIS PDBWRITER BECAUSE UNIT CELL INFORMATION
REMARK     285 WAS MISSING.
REMARK     285 PROTEIN DATA BANK CONVENTIONS REQUIRE THAT
REMARK     285 CRYST1 RECORD IS INCLUDED, BUT THE VALUES ON
REMARK     285 THIS RECORD ARE MEANINGLESS.
REMARK     285 UNITARY VALUES FOR THE UNIT CELL AUTOMATICALLY SET
REMARK     285 BY MDANALYSIS PDBWRITER BECAUSE UNIT CELL INFORMATION
REMARK     285 WAS MISSING.
REMARK     285 PROTEIN DATA BANK CONVENTIONS REQUIRE THAT
REMARK     285 CRYST1 RECORD IS INCLUDED, BUT THE VALUES ON
REMARK     285 THIS RECORD ARE MEANINGLESS.
REMARK                            x       y       z     vdW  Elec       q    Type
REMARK                         _______ _______ _______ _____ _____    ______ ____
ROOT
ATOM      1  N   MET A   1     -21.258   8.019  -9.326  1.00  0.00    -0.123 NA
ATOM      2  CA  MET A   1     -20.891   8.459  -7.982  1.00  0.00    +0.170 C 
ATOM      3  C   MET A   1     -19.661   7.718  -7.485  1.00  0.00    +0.259 C 
ATOM      4  O   MET A   1     -19.538   6.509  -7.679  1.00  0.00    -0.272 OA
ATOM      5  CB  MET A   1     -22.040   8.244  -7.010  1.00  0.00    +0.040 C 
ATOM      6  CG  MET A   1     -21.746   8.736  -5.602  1.00  0.00    +0.060 C 
ATOM      7  SD  MET A   1     -23.170   9.550  -4.835  1.00  0.00    -0.139 S 
ATOM      8  CE  MET A   1     -23.920   8.166  -3.983  1.00  0.00    +0.069 C 
ATOM      9  N   LYS A   2     -18.748   8.442  -6.844  1.00  0.00    -0.197 N 
ATOM     10  CA  LYS A   2     -17.494   7.850  -6.387  1.00  0.00    +0.173 C 
ATOM     11  C   LYS A   2     -17.714   6.985  -5.156  1.00  0.00    +0.262 C 
ATOM     12  O   LYS A   2     -18.428   7.380  -4.236  1.00  0.00    -0.271 OA
ATOM     13  CB  LYS A   2     -16.471   8.930  -6.071  1.00  0.00    +0.031 C 
ATOM     14  CG  LYS A   2     -15.160   8.393  -5.519  1.00  0.00    +0.009 C 
ATOM     15  CD  LYS A   2     -14.145   8.141  -6.622  1.00  0.00    +0.049 C 
ATOM     16  CE  LYS A   2     -13.774   9.375  -7.307  1.00  0.00    +0.096 C 
ATOM     17  NZ  LYS A   2     -12.719   9.513  -8.104  1.00  0.00    -0.151 NA
ATOM     18  N   GLN A   3     -17.101   5.805  -5.140  1.00  0.00    -0.196 N 
ATOM     19  CA  GLN A   3     -17.800   4.581  -5.519  1.00  0.00    +0.173 C 
ATOM     20  C   GLN A   3     -17.843   3.595  -4.363  1.00  0.00    +0.262 C 
ATOM     21  O   GLN A   3     -16.883   3.481  -3.603  1.00  0.00    -0.271 OA
ATOM     22  CB  GLN A   3     -17.134   3.927  -6.719  1.00  0.00    +0.041 C 
ATOM     23  CG  GLN A   3     -17.762   4.305  -8.050  1.00  0.00    +0.091 C 
ATOM     24  CD  GLN A   3     -16.829   4.076  -9.228  1.00  0.00    +0.261 C 
ATOM     25  OE1 GLN A   3     -17.085   4.551 -10.344  1.00  0.00    -0.272 OA
ATOM     26  NE2 GLN A   3     -15.742   3.349  -8.991  1.00  0.00    -0.088 N 
ATOM     27  N   ALA A   4     -18.957   2.881  -4.230  1.00  0.00    -0.196 N 
ATOM     28  CA  ALA A   4     -19.847   3.066  -3.087  1.00  0.00    +0.173 C 
ATOM     29  C   ALA A   4     -20.052   1.760  -2.337  1.00  0.00    +0.262 C 
ATOM     30  O   ALA A   4     -20.193   0.701  -2.949  1.00  0.00    -0.271 OA
ATOM     31  CB  ALA A   4     -21.193   3.611  -3.535  1.00  0.00    +0.033 C 
ATOM     32  N   VAL A   5     -20.068   1.831  -1.009  1.00  0.00    -0.196 N 
ATOM     33  CA  VAL A   5     -20.051   0.627  -0.183  1.00  0.00    +0.173 C 
ATOM     34  C   VAL A   5     -21.402  -0.066  -0.255  1.00  0.00    +0.262 C 
ATOM     35  O   VAL A   5     -22.442   0.591  -0.219  1.00  0.00    -0.271 OA
ATOM     36  CB  VAL A   5     -19.717   0.938   1.267  1.00  0.00    +0.029 C 
ATOM     37  CG1 VAL A   5     -18.453   1.789   1.360  1.00  0.00    +0.002 C 
ATOM     38  CG2 VAL A   5     -20.858   1.715   1.921  1.00  0.00    +0.002 C 
ATOM     39  N   ASN A   6     -21.387  -1.392  -0.356  1.00  0.00    -0.196 N 
ATOM     40  CA  ASN A   6     -22.625  -2.158  -0.475  1.00  0.00    +0.182 C 
ATOM     41  C   ASN A   6     -23.397  -2.177   0.835  1.00  0.00    +0.262 C 
ATOM     42  O   ASN A   6     -24.567  -2.556   0.864  1.00  0.00    -0.271 OA
ATOM     43  CB  ASN A   6     -22.341  -3.583  -0.919  1.00  0.00    +0.120 C 
ATOM     44  CG  ASN A   6     -23.594  -4.317  -1.367  1.00  0.00    +0.263 C 
ATOM     45  OD1 ASN A   6     -24.560  -4.436  -0.613  1.00  0.00    -0.272 OA
ATOM     46  ND2 ASN A   6     -23.582  -4.813  -2.600  1.00  0.00    -0.088 N 
ATOM     47  N   ALA A   7     -22.742  -1.769   1.918  1.00  0.00    -0.196 N 
ATOM     48  CA  ALA A   7     -22.969  -2.388   3.222  1.00  0.00    +0.173 C 
ATOM     49  C   ALA A   7     -24.419  -2.240   3.650  1.00  0.00    +0.262 C 
ATOM     50  O   ALA A   7     -25.058  -1.231   3.355  1.00  0.00    -0.271 OA
ATOM     51  CB  ALA A   7     -22.063  -1.773   4.275  1.00  0.00    +0.033 C 
ATOM     52  N   LEU A   8     -24.941  -3.246   4.347  1.00  0.00    -0.196 N 
ATOM     53  CA  LEU A   8     -26.182  -3.087   5.100  1.00  0.00    +0.173 C 
ATOM     54  C   LEU A   8     -25.903  -2.551   6.495  1.00  0.00    +0.262 C 
ATOM     55  O   LEU A   8     -24.900  -2.907   7.111  1.00  0.00    -0.271 OA
ATOM     56  CB  LEU A   8     -26.922  -4.411   5.205  1.00  0.00    +0.031 C 
ATOM     57  CG  LEU A   8     -27.568  -4.924   3.916  1.00  0.00    +0.002 C 
ATOM     58  CD1 LEU A   8     -28.922  -5.555   4.218  1.00  0.00    +0.000 C 
ATOM     59  CD2 LEU A   8     -26.841  -6.163   3.408  1.00  0.00    +0.000 C 
ATOM     60  N   LEU A   9     -26.790  -1.694   6.992  1.00  0.00    -0.196 N 
ATOM     61  CA  LEU A   9     -26.790  -1.337   8.409  1.00  0.00    +0.173 C 
ATOM     62  C   LEU A   9     -27.494  -2.400   9.236  1.00  0.00    +0.262 C 
ATOM     63  O   LEU A   9     -28.520  -2.937   8.821  1.00  0.00    -0.271 OA
ATOM     64  CB  LEU A   9     -27.468   0.006   8.625  1.00  0.00    +0.031 C 
ATOM     65  CG  LEU A   9     -26.643   1.243   8.266  1.00  0.00    +0.002 C 
ATOM     66  CD1 LEU A   9     -27.011   2.407   9.178  1.00  0.00    +0.000 C 
ATOM     67  CD2 LEU A   9     -27.108   1.832   6.937  1.00  0.00    +0.000 C 
ATOM     68  N   VAL A  10     -26.945  -2.705  10.408  1.00  0.00    -0.196 N 
ATOM     69  CA  VAL A  10     -27.176  -4.000  11.041  1.00  0.00    +0.176 C 
ATOM     70  C   VAL A  10     -27.461  -3.805  12.521  1.00  0.00    +0.262 C 
ATOM     71  O   VAL A  10     -26.721  -3.108  13.213  1.00  0.00    -0.271 OA
ATOM     72  CB  VAL A  10     -25.987  -4.933  10.871  1.00  0.00    +0.073 C 
ATOM     73  CG1 VAL A  10     -26.318  -6.328  11.394  1.00  0.00    +0.209 C 
ATOM     74  CG2 VAL A  10     -25.616  -5.059   9.396  1.00  0.00    +0.006 C 
ATOM     75  N   PHE A  11     -28.534  -4.421  13.008  1.00  0.00    -0.196 N 
ATOM     76  CA  PHE A  11     -28.436  -5.738  13.634  1.00  0.00    +0.175 C 
ATOM     77  C   PHE A  11     -28.178  -6.813  12.590  1.00  0.00    +0.217 C 
ATOM     78  O   PHE A  11     -27.133  -7.458  12.604  1.00  0.00    -0.462 OA
ATOM     79  CB  PHE A  11     -29.708  -6.070  14.399  1.00  0.00    +0.057 C 
ATOM     80  CG  PHE A  11     -29.470  -6.476  15.823  1.00  0.00    -0.020 A 
ATOM     81  CD1 PHE A  11     -29.118  -5.520  16.769  1.00  0.00    -0.004 A 
ATOM     82  CE1 PHE A  11     -28.898  -5.897  18.089  1.00  0.00    -0.000 A 
ATOM     83  CD2 PHE A  11     -29.602  -7.808  16.196  1.00  0.00    -0.004 A 
ATOM     84  CE2 PHE A  11     -29.381  -8.184  17.517  1.00  0.00    -0.000 A 
ATOM     85  CZ  PHE A  11     -29.029  -7.229  18.463  1.00  0.00    -0.000 A 
ATOM     86  N   PHE A  12     -29.132  -7.005  11.685  1.00  0.00    -0.232 NA
ATOM     87  CA  PHE A  12     -30.368  -6.226  11.704  1.00  0.00    +0.188 C 
ATOM     88  C   PHE A  12     -31.250  -6.646  12.868  1.00  0.00    +0.264 C 
ATOM     89  O   PHE A  12     -31.856  -5.803  13.528  1.00  0.00    -0.271 OA
ATOM     90  CB  PHE A  12     -31.133  -6.392  10.402  1.00  0.00    +0.060 C 
ATOM     91  CG  PHE A  12     -30.337  -7.040   9.307  1.00  0.00    -0.020 A 
ATOM     92  CD1 PHE A  12     -29.211  -6.406   8.798  1.00  0.00    -0.004 A 
ATOM     93  CE1 PHE A  12     -28.474  -7.007   7.784  1.00  0.00    -0.000 A 
ATOM     94  CD2 PHE A  12     -30.728  -8.276   8.805  1.00  0.00    -0.004 A 
ATOM     95  CE2 PHE A  12     -29.990  -8.878   7.792  1.00  0.00    -0.000 A 
ATOM     96  CZ  PHE A  12     -28.864  -8.243   7.281  1.00  0.00    -0.000 A 
ATOM     97  N   ALA A  13     -31.323  -7.950  13.120  1.00  0.00    -0.196 N 
ATOM     98  CA  ALA A  13     -32.610  -8.637  13.199  1.00  0.00    +0.173 C 
ATOM     99  C   ALA A  13     -33.508  -7.998  14.245  1.00  0.00    +0.262 C 
ATOM    100  O   ALA A  13     -34.715  -7.876  14.041  1.00  0.00    -0.271 OA
ATOM    101  CB  ALA A  13     -32.415 -10.109  13.530  1.00  0.00    +0.033 C 
ATOM    102  N   GLY A  14     -32.921  -7.589  15.367  1.00  0.00    -0.194 N 
ATOM    103  CA  GLY A  14     -31.627  -8.120  15.785  1.00  0.00    +0.201 C 
ATOM    104  C   GLY A  14     -31.801  -9.399  16.589  1.00  0.00    +0.264 C 
ATOM    105  O   GLY A  14     -31.026  -9.670  17.504  1.00  0.00    -0.271 OA
ATOM    106  N   SER A  15     -32.821 -10.184  16.248  1.00  0.00    -0.194 N 
ATOM    107  CA  SER A  15     -32.951 -11.534  16.788  1.00  0.00    +0.205 C 
ATOM    108  C   SER A  15     -32.078 -12.519  16.027  1.00  0.00    +0.264 C 
ATOM    109  O   SER A  15     -31.786 -12.316  14.850  1.00  0.00    -0.271 OA
ATOM    110  CB  SER A  15     -34.400 -11.994  16.733  1.00  0.00    +0.213 C 
ATOM    111  OG  SER A  15     -34.710 -12.528  15.456  1.00  0.00    -0.218 OA
ATOM    112  N   SER A  16     -31.661 -13.589  16.700  1.00  0.00    -0.194 N 
ATOM    113  CA  SER A  16     -32.264 -14.901  16.492  1.00  0.00    +0.205 C 
ATOM    114  C   SER A  16     -33.684 -14.947  17.030  1.00  0.00    +0.264 C 
ATOM    115  O   SER A  16     -34.004 -14.274  18.009  1.00  0.00    -0.271 OA
ATOM    116  CB  SER A  16     -31.434 -15.985  17.159  1.00  0.00    +0.213 C 
ATOM    117  OG  SER A  16     -31.616 -15.964  18.565  1.00  0.00    -0.218 OA
ATOM    118  N   ASP A  17     -34.538 -15.742  16.390  1.00  0.00    -0.196 N 
ATOM    119  CA  ASP A  17     -35.793 -16.162  17.009  1.00  0.00    +0.184 C 
ATOM    120  C   ASP A  17     -35.561 -17.288  18.004  1.00  0.00    +0.262 C 
ATOM    121  O   ASP A  17     -36.195 -17.331  19.057  1.00  0.00    -0.271 OA
ATOM    122  CB  ASP A  17     -36.792 -16.615  15.955  1.00  0.00    +0.145 C 
ATOM    123  CG  ASP A  17     -37.325 -18.017  16.203  1.00  0.00    +0.367 C 
ATOM    124  OD1 ASP A  17     -36.805 -18.716  17.101  1.00  0.00    -0.246 OA
ATOM    125  OD2 ASP A  17     -38.270 -18.425  15.494  1.00  0.00    -0.246 OA
ATOM    126  N   ALA A  18     -34.653 -18.200  17.670  1.00  0.00    -0.196 N 
ATOM    127  CA  ALA A  18     -35.034 -19.575  17.364  1.00  0.00    +0.173 C 
ATOM    128  C   ALA A  18     -34.255 -20.562  18.219  1.00  0.00    +0.262 C 
ATOM    129  O   ALA A  18     -33.239 -20.207  18.813  1.00  0.00    -0.271 OA
ATOM    130  CB  ALA A  18     -34.802 -19.886  15.894  1.00  0.00    +0.033 C 
ATOM    131  N   ILE A  19     -34.730 -21.803  18.282  1.00  0.00    -0.196 N 
ATOM    132  CA  ILE A  19     -34.070 -22.829  19.082  1.00  0.00    +0.173 C 
ATOM    133  C   ILE A  19     -33.796 -22.296  20.478  1.00  0.00    +0.262 C 
ATOM    134  O   ILE A  19     -33.394 -21.143  20.639  1.00  0.00    -0.271 OA
ATOM    135  CB  ILE A  19     -32.769 -23.294  18.451  1.00  0.00    +0.029 C 
ATOM    136  CG1 ILE A  19     -33.017 -24.471  17.509  1.00  0.00    +0.002 C 
ATOM    137  CG2 ILE A  19     -31.772 -23.711  19.530  1.00  0.00    +0.002 C 
ATOM    138  CD1 ILE A  19     -31.750 -25.055  16.905  1.00  0.00    +0.000 C 
ATOM    139  N   ARG A  20     -34.012 -23.131  21.491  1.00  0.00    -0.196 N 
ATOM    140  CA  ARG A  20     -34.127 -22.647  22.863  1.00  0.00    +0.173 C 
ATOM    141  C   ARG A  20     -32.863 -21.922  23.293  1.00  0.00    +0.262 C 
ATOM    142  O   ARG A  20     -32.917 -20.994  24.098  1.00  0.00    -0.271 OA
ATOM    143  CB  ARG A  20     -34.404 -23.796  23.821  1.00  0.00    +0.033 C 
ATOM    144  CG  ARG A  20     -34.994 -23.357  25.151  1.00  0.00    +0.029 C 
ATOM    145  CD  ARG A  20     -35.003 -24.489  26.165  1.00  0.00    +0.129 C 
ATOM    146  NE  ARG A  20     -35.460 -24.036  27.476  1.00  0.00    -0.234 NA
ATOM    147  CZ  ARG A  20     -35.105 -24.585  28.634  1.00  0.00    +0.284 C 
ATOM    148  NH1 ARG A  20     -35.229 -23.908  29.772  1.00  0.00    -0.104 N 
ATOM    149  NH2 ARG A  20     -34.623 -25.824  28.654  1.00  0.00    -0.104 N 
ATOM    150  N   ARG A  21     -31.720 -22.345  22.758  1.00  0.00    -0.194 N 
ATOM    151  CA  ARG A  21     -30.437 -22.094  23.406  1.00  0.00    +0.198 C 
ATOM    152  C   ARG A  21     -29.755 -20.875  22.809  1.00  0.00    +0.384 C 
ATOM    153  O   ARG A  21     -29.861 -19.772  23.345  1.00  0.00    -0.244 OA
ATOM    154  CB  ARG A  21     -29.521 -23.300  23.282  1.00  0.00    +0.035 C 
ATOM    155  CG  ARG A  21     -30.024 -24.531  24.020  1.00  0.00    +0.029 C 
ATOM    156  CD  ARG A  21     -29.091 -25.718  23.837  1.00  0.00    +0.129 C 
ATOM    157  NE  ARG A  21     -29.511 -26.863  24.640  1.00  0.00    -0.234 NA
ATOM    158  CZ  ARG A  21     -28.758 -27.930  24.893  1.00  0.00    +0.284 C 
ATOM    159  NH1 ARG A  21     -27.613 -28.120  24.243  1.00  0.00    -0.104 N 
ATOM    160  NH2 ARG A  21     -29.154 -28.813  25.804  1.00  0.00    -0.104 N 
ATOM    161  OXT ARG A  21     -29.085 -20.973  21.782  1.00  0.00    -0.244 OA
ATOM    162  H   MET A   1     -22.084   8.529  -9.636  1.00  0.00    +0.000 HD
ATOM    163  H   MET A   1     -21.461   7.020  -9.313  1.00  0.00    +0.000 HD
ATOM    164  H   LYS A   2     -18.921   9.397  -6.675  1.00  0.00    +0.000 HD
ATOM    165  H   LYS A   2     -12.121   8.747  -8.266  1.00  0.00    +0.000 HD
ATOM    166  H   GLN A   3     -16.156   5.756  -4.866  1.00  0.00    +0.000 HD
ATOM    167  H   GLN A   3     -15.102   3.168  -9.716  1.00  0.00    +0.000 HD
ATOM    168  H   GLN A   3     -15.577   2.991  -8.089  1.00  0.00    +0.000 HD
ATOM    169  H   ALA A   4     -19.187   2.213  -4.916  1.00  0.00    +0.000 HD
ATOM    170  H   VAL A   5     -20.092   2.714  -0.574  1.00  0.00    +0.000 HD
ATOM    171  H   ASN A   6     -20.525  -1.866  -0.351  1.00  0.00    +0.000 HD
ATOM    172  H   ASN A   6     -24.367  -5.298  -2.944  1.00  0.00    +0.000 HD
ATOM    173  H   ASN A   6     -22.789  -4.694  -3.171  1.00  0.00    +0.000 HD
ATOM    174  H   ALA A   7     -22.091  -1.034   1.840  1.00  0.00    +0.000 HD
ATOM    175  H   LEU A   8     -24.479  -4.116   4.356  1.00  0.00    +0.000 HD
ATOM    176  H   LEU A   9     -27.461  -1.293   6.394  1.00  0.00    +0.000 HD
ATOM    177  H   VAL A  10     -26.371  -2.043  10.859  1.00  0.00    +0.000 HD
ATOM    178  H   PHE A  11     -29.412  -3.982  12.946  1.00  0.00    +0.000 HD
ATOM    179  H   ALA A  13     -30.493  -8.463  13.256  1.00  0.00    +0.000 HD
ATOM    180  H   GLY A  14     -33.368  -6.914  15.926  1.00  0.00    +0.000 HD
ATOM    181  H   SER A  15     -33.500  -9.847  15.621  1.00  0.00    +0.000 HD
ATOM    182  H   SER A  15     -34.140 -13.293  15.279  1.00  0.00    +0.000 HD
ATOM    183  H   SER A  16     -30.930 -13.492  17.352  1.00  0.00    +0.000 HD
ATOM    184  H   SER A  16     -31.334 -15.104  18.914  1.00  0.00    +0.000 HD
ATOM    185  H   ASP A  17     -34.319 -16.053  15.482  1.00  0.00    +0.000 HD
ATOM    186  H   ASP A  17     -36.098 -18.373  17.612  1.00  0.00    +0.000 HD
ATOM    187  H   ALA A  18     -33.704 -17.943  17.629  1.00  0.00    +0.000 HD
ATOM    188  H   ILE A  19     -35.543 -22.033  17.777  1.00  0.00    +0.000 HD
ATOM    189  H   ARG A  20     -34.096 -24.095  21.311  1.00  0.00    +0.000 HD
ATOM    190  H   ARG A  20     -35.586 -22.991  29.763  1.00  0.00    +0.000 HD
ATOM    191  H   ARG A  20     -34.963 -24.324  30.623  1.00  0.00    +0.000 HD
ATOM    192  H   ARG A  20     -34.530 -26.330  27.814  1.00  0.00    +0.000 HD
ATOM    193  H   ARG A  20     -34.358 -26.236  29.508  1.00  0.00    +0.000 HD
ATOM    194  H   ARG A  21     -31.741 -22.838  21.906  1.00  0.00    +0.000 HD
ATOM    195  H   ARG A  21     -30.368 -19.679  24.128  1.00  0.00    +0.000 HD
ATOM    196  H   ARG A  21     -27.316 -27.468  23.567  1.00  0.00    +0.000 HD
ATOM    197  H   ARG A  21     -27.063 -28.913  24.437  1.00  0.00    +0.000 HD
ATOM    198  H   ARG A  21     -30.002 -28.675  26.287  1.00  0.00    +0.000 HD
ATOM    199  H   ARG A  21     -28.601 -29.604  25.995  1.00  0.00    +0.000 HD
ENDROOT
TORSDOF 0
