REMARK  Name = /var/folders/yp/yjbh3p597675h2qddgqr02y00000gn/T/tmpaceq9win.pdb
REMARK     285 UNITARY VALUES FOR THE UNIT CELL AUTOMATICALLY SET
REMARK     285 BY MDANALYSIS PDBWRITER BECAUSE UNIT CELL INFORMATION
REMARK     285 WAS MISSING.
REMARK     285 PROTEIN DATA BANK CONVENTIONS REQUIRE THAT
REMARK     285 CRYST1 RECORD IS INCLUDED, BUT THE VALUES ON
REMARK     285 THIS RECORD ARE MEANINGLESS.
REMARK     285 UNITARY VALUES FOR THE UNIT CELL AUTOMATICALLY SET
REMARK     285 BY MDANALYSIS PDBWRITER BECAUSE UNIT CELL INFORMATION
REMARK     285 WAS MISSING.
REMARK     285 PROTEIN DATA BANK CONVENTIONS REQUIRE THAT
REMARK     285 CRYST1 RECORD IS INCLUDED, BUT THE VALUES ON
REMARK     285 THIS RECORD ARE MEANINGLESS.
REMARK                            x       y       z     vdW  Elec       q    Type
REMARK                         _______ _______ _______ _____ _____    ______ ____
ROOT
ATOM      1  N   MET A   1     -13.194  11.853  19.726  1.00  0.00    -0.123 NA
ATOM      2  CA  MET A   1     -13.405  11.989  18.286  1.00  0.00    +0.170 C 
ATOM      3  C   MET A   1     -14.311  13.170  17.980  1.00  0.00    +0.259 C 
ATOM      4  O   MET A   1     -15.228  13.469  18.744  1.00  0.00    -0.272 OA
ATOM      5  CB  MET A   1     -14.009  10.721  17.704  1.00  0.00    +0.040 C 
ATOM      6  CG  MET A   1     -13.111   9.502  17.835  1.00  0.00    +0.060 C 
ATOM      7  SD  MET A   1     -13.394   8.283  16.527  1.00  0.00    -0.139 S 
ATOM      8  CE  MET A   1     -11.967   7.225  16.749  1.00  0.00    +0.069 C 
ATOM      9  N   LYS A   2     -14.058  13.841  16.860  1.00  0.00    -0.197 N 
ATOM     10  CA  LYS A   2     -15.130  14.243  15.955  1.00  0.00    +0.173 C 
ATOM     11  C   LYS A   2     -15.881  13.032  15.424  1.00  0.00    +0.262 C 
ATOM     12  O   LYS A   2     -15.266  12.035  15.047  1.00  0.00    -0.271 OA
ATOM     13  CB  LYS A   2     -14.583  15.052  14.791  1.00  0.00    +0.031 C 
ATOM     14  CG  LYS A   2     -14.083  16.433  15.182  1.00  0.00    +0.009 C 
ATOM     15  CD  LYS A   2     -13.375  17.125  14.029  1.00  0.00    +0.049 C 
ATOM     16  CE  LYS A   2     -12.718  18.355  14.460  1.00  0.00    +0.096 C 
ATOM     17  NZ  LYS A   2     -13.291  19.554  14.480  1.00  0.00    -0.151 NA
ATOM     18  N   GLN A   3     -17.207  13.118  15.396  1.00  0.00    -0.196 N 
ATOM     19  CA  GLN A   3     -18.030  12.007  14.927  1.00  0.00    +0.173 C 
ATOM     20  C   GLN A   3     -18.755  12.367  13.640  1.00  0.00    +0.262 C 
ATOM     21  O   GLN A   3     -19.271  13.476  13.504  1.00  0.00    -0.271 OA
ATOM     22  CB  GLN A   3     -19.045  11.599  15.983  1.00  0.00    +0.041 C 
ATOM     23  CG  GLN A   3     -18.441  10.829  17.146  1.00  0.00    +0.091 C 
ATOM     24  CD  GLN A   3     -19.414  10.649  18.300  1.00  0.00    +0.261 C 
ATOM     25  OE1 GLN A   3     -20.622  10.467  18.091  1.00  0.00    -0.272 OA
ATOM     26  NE2 GLN A   3     -18.897  10.697  19.525  1.00  0.00    -0.088 N 
ATOM     27  N   ALA A   4     -18.793  11.434  12.694  1.00  0.00    -0.196 N 
ATOM     28  CA  ALA A   4     -19.923  11.326  11.777  1.00  0.00    +0.173 C 
ATOM     29  C   ALA A   4     -21.224  11.117  12.534  1.00  0.00    +0.262 C 
ATOM     30  O   ALA A   4     -21.238  10.496  13.595  1.00  0.00    -0.271 OA
ATOM     31  CB  ALA A   4     -19.716  10.182  10.798  1.00  0.00    +0.033 C 
ATOM     32  N   VAL A   5     -22.321  11.635  11.990  1.00  0.00    -0.196 N 
ATOM     33  CA  VAL A   5     -23.525  11.870  12.782  1.00  0.00    +0.173 C 
ATOM     34  C   VAL A   5     -24.621  10.910  12.346  1.00  0.00    +0.262 C 
ATOM     35  O   VAL A   5     -24.739  10.594  11.164  1.00  0.00    -0.271 OA
ATOM     36  CB  VAL A   5     -24.022  13.300  12.651  1.00  0.00    +0.029 C 
ATOM     37  CG1 VAL A   5     -22.992  14.283  13.202  1.00  0.00    +0.002 C 
ATOM     38  CG2 VAL A   5     -24.266  13.647  11.183  1.00  0.00    +0.002 C 
ATOM     39  N   ASN A   6     -25.424  10.447  13.300  1.00  0.00    -0.196 N 
ATOM     40  CA  ASN A   6     -26.263   9.273  13.085  1.00  0.00    +0.182 C 
ATOM     41  C   ASN A   6     -27.635   9.659  12.557  1.00  0.00    +0.262 C 
ATOM     42  O   ASN A   6     -28.392   8.804  12.101  1.00  0.00    -0.271 OA
ATOM     43  CB  ASN A   6     -26.420   8.472  14.366  1.00  0.00    +0.120 C 
ATOM     44  CG  ASN A   6     -25.212   7.598  14.661  1.00  0.00    +0.263 C 
ATOM     45  OD1 ASN A   6     -25.027   6.548  14.047  1.00  0.00    -0.272 OA
ATOM     46  ND2 ASN A   6     -24.381   8.032  15.605  1.00  0.00    -0.088 N 
ATOM     47  N   ALA A   7     -27.957  10.948  12.618  1.00  0.00    -0.196 N 
ATOM     48  CA  ALA A   7     -29.348  11.382  12.713  1.00  0.00    +0.173 C 
ATOM     49  C   ALA A   7     -30.166  10.852  11.548  1.00  0.00    +0.262 C 
ATOM     50  O   ALA A   7     -29.626  10.588  10.475  1.00  0.00    -0.271 OA
ATOM     51  CB  ALA A   7     -29.439  12.900  12.749  1.00  0.00    +0.033 C 
ATOM     52  N   LEU A   8     -31.470  10.695  11.757  1.00  0.00    -0.196 N 
ATOM     53  CA  LEU A   8     -32.359  10.217  10.701  1.00  0.00    +0.173 C 
ATOM     54  C   LEU A   8     -33.277  11.331  10.223  1.00  0.00    +0.262 C 
ATOM     55  O   LEU A   8     -33.569  12.263  10.971  1.00  0.00    -0.271 OA
ATOM     56  CB  LEU A   8     -33.192   9.044  11.187  1.00  0.00    +0.031 C 
ATOM     57  CG  LEU A   8     -32.417   7.788  11.586  1.00  0.00    +0.002 C 
ATOM     58  CD1 LEU A   8     -33.332   6.814  12.321  1.00  0.00    +0.000 C 
ATOM     59  CD2 LEU A   8     -31.445   8.094  12.721  1.00  0.00    +0.000 C 
ATOM     60  N   LEU A   9     -33.734  11.234   8.978  1.00  0.00    -0.196 N 
ATOM     61  CA  LEU A   9     -35.149  11.416   8.670  1.00  0.00    +0.173 C 
ATOM     62  C   LEU A   9     -35.899  10.099   8.773  1.00  0.00    +0.262 C 
ATOM     63  O   LEU A   9     -35.450   9.081   8.248  1.00  0.00    -0.271 OA
ATOM     64  CB  LEU A   9     -35.327  11.995   7.277  1.00  0.00    +0.031 C 
ATOM     65  CG  LEU A   9     -34.566  13.289   6.982  1.00  0.00    +0.002 C 
ATOM     66  CD1 LEU A   9     -35.377  14.178   6.046  1.00  0.00    +0.000 C 
ATOM     67  CD2 LEU A   9     -33.375  13.016   6.070  1.00  0.00    +0.000 C 
ATOM     68  N   VAL A  10     -37.045  10.115   9.447  1.00  0.00    -0.196 N 
ATOM     69  CA  VAL A  10     -37.960   8.978   9.422  1.00  0.00    +0.173 C 
ATOM     70  C   VAL A  10     -39.106   9.261   8.465  1.00  0.00    +0.262 C 
ATOM     71  O   VAL A  10     -39.597  10.386   8.393  1.00  0.00    -0.271 OA
ATOM     72  CB  VAL A  10     -38.515   8.666  10.801  1.00  0.00    +0.029 C 
ATOM     73  CG1 VAL A  10     -38.783   7.169  10.950  1.00  0.00    +0.002 C 
ATOM     74  CG2 VAL A  10     -37.519   9.076  11.883  1.00  0.00    +0.002 C 
ATOM     75  N   PHE A  11     -39.535   8.240   7.729  1.00  0.00    -0.196 N 
ATOM     76  CA  PHE A  11     -40.028   7.012   8.344  1.00  0.00    +0.177 C 
ATOM     77  C   PHE A  11     -38.882   6.056   8.636  1.00  0.00    +0.262 C 
ATOM     78  O   PHE A  11     -38.873   5.387   9.668  1.00  0.00    -0.271 OA
ATOM     79  CB  PHE A  11     -41.047   6.326   7.449  1.00  0.00    +0.057 C 
ATOM     80  CG  PHE A  11     -40.559   5.040   6.852  1.00  0.00    -0.020 A 
ATOM     81  CD1 PHE A  11     -40.917   3.825   7.426  1.00  0.00    -0.004 A 
ATOM     82  CE1 PHE A  11     -40.466   2.634   6.873  1.00  0.00    -0.000 A 
ATOM     83  CD2 PHE A  11     -39.749   5.062   5.721  1.00  0.00    -0.004 A 
ATOM     84  CE2 PHE A  11     -39.297   3.870   5.168  1.00  0.00    -0.000 A 
ATOM     85  CZ  PHE A  11     -39.656   2.657   5.742  1.00  0.00    -0.000 A 
ATOM     86  N   PHE A  12     -37.915   5.992   7.726  1.00  0.00    -0.196 N 
ATOM     87  CA  PHE A  12     -37.442   4.711   7.209  1.00  0.00    +0.177 C 
ATOM     88  C   PHE A  12     -36.492   4.048   8.194  1.00  0.00    +0.262 C 
ATOM     89  O   PHE A  12     -36.512   2.829   8.356  1.00  0.00    -0.271 OA
ATOM     90  CB  PHE A  12     -36.740   4.890   5.871  1.00  0.00    +0.057 C 
ATOM     91  CG  PHE A  12     -35.674   3.870   5.606  1.00  0.00    -0.022 C 
ATOM     92  CD1 PHE A  12     -34.776   3.526   6.609  1.00  0.00    +0.000 C 
ATOM     93  CE1 PHE A  12     -33.787   2.579   6.362  1.00  0.00    +0.156 C 
ATOM     94  CD2 PHE A  12     -35.584   3.268   4.356  1.00  0.00    -0.009 C 
ATOM     95  CE2 PHE A  12     -34.596   2.322   4.110  1.00  0.00    -0.022 C 
ATOM     96  CZ  PHE A  12     -33.696   1.978   5.113  1.00  0.00    +0.080 C 
ATOM     97  N   ALA A  13     -35.661   4.851   8.852  1.00  0.00    -0.196 N 
ATOM     98  CA  ALA A  13     -34.277   4.464   9.110  1.00  0.00    +0.173 C 
ATOM     99  C   ALA A  13     -34.211   3.198   9.950  1.00  0.00    +0.261 C 
ATOM    100  O   ALA A  13     -34.903   3.083  10.961  1.00  0.00    -0.271 OA
ATOM    101  CB  ALA A  13     -33.526   5.581   9.816  1.00  0.00    +0.033 C 
ATOM    102  N   GLY A  14     -33.380   2.249   9.535  1.00  0.00    -0.200 N 
ATOM    103  CA  GLY A  14     -32.459   2.475   8.425  1.00  0.00    +0.162 C 
ATOM    104  C   GLY A  14     -33.143   2.216   7.092  1.00  0.00    +0.200 C 
ATOM    105  O   GLY A  14     -34.320   1.860   7.053  1.00  0.00    -0.336 OA
ATOM    106  N   SER A  15     -32.406   2.395   5.999  1.00  0.00    -0.182 NA
ATOM    107  CA  SER A  15     -32.903   2.021   4.679  1.00  0.00    +0.168 C 
ATOM    108  C   SER A  15     -32.832   0.517   4.468  1.00  0.00    +0.259 C 
ATOM    109  O   SER A  15     -32.005  -0.161   5.075  1.00  0.00    -0.272 OA
ATOM    110  CB  SER A  15     -32.111   2.723   3.588  1.00  0.00    +0.207 C 
ATOM    111  OG  SER A  15     -30.817   2.160   3.465  1.00  0.00    -0.218 OA
ATOM    112  N   SER A  16     -33.700  -0.006   3.607  1.00  0.00    -0.194 N 
ATOM    113  CA  SER A  16     -33.469  -1.309   2.990  1.00  0.00    +0.205 C 
ATOM    114  C   SER A  16     -32.282  -1.267   2.041  1.00  0.00    +0.264 C 
ATOM    115  O   SER A  16     -32.202  -0.393   1.181  1.00  0.00    -0.271 OA
ATOM    116  CB  SER A  16     -34.705  -1.774   2.238  1.00  0.00    +0.213 C 
ATOM    117  OG  SER A  16     -35.630  -0.711   2.084  1.00  0.00    -0.218 OA
ATOM    118  N   ASP A  17     -31.361  -2.214   2.197  1.00  0.00    -0.196 N 
ATOM    119  CA  ASP A  17     -31.697  -3.629   2.069  1.00  0.00    +0.184 C 
ATOM    120  C   ASP A  17     -31.671  -4.321   3.423  1.00  0.00    +0.262 C 
ATOM    121  O   ASP A  17     -30.910  -3.931   4.308  1.00  0.00    -0.271 OA
ATOM    122  CB  ASP A  17     -30.739  -4.331   1.122  1.00  0.00    +0.145 C 
ATOM    123  CG  ASP A  17     -30.645  -3.659  -0.238  1.00  0.00    +0.367 C 
ATOM    124  OD1 ASP A  17     -31.669  -3.142  -0.734  1.00  0.00    -0.246 OA
ATOM    125  OD2 ASP A  17     -29.537  -3.646  -0.817  1.00  0.00    -0.246 OA
ATOM    126  N   ALA A  18     -32.500  -5.347   3.585  1.00  0.00    -0.196 N 
ATOM    127  CA  ALA A  18     -32.048  -6.605   4.171  1.00  0.00    +0.173 C 
ATOM    128  C   ALA A  18     -32.271  -7.765   3.215  1.00  0.00    +0.262 C 
ATOM    129  O   ALA A  18     -33.195  -7.736   2.403  1.00  0.00    -0.271 OA
ATOM    130  CB  ALA A  18     -32.770  -6.881   5.481  1.00  0.00    +0.033 C 
ATOM    131  N   ILE A  19     -31.426  -8.788   3.308  1.00  0.00    -0.196 N 
ATOM    132  CA  ILE A  19     -31.858 -10.158   3.053  1.00  0.00    +0.173 C 
ATOM    133  C   ILE A  19     -31.832 -10.953   4.348  1.00  0.00    +0.262 C 
ATOM    134  O   ILE A  19     -30.851 -10.911   5.089  1.00  0.00    -0.271 OA
ATOM    135  CB  ILE A  19     -30.983 -10.845   2.017  1.00  0.00    +0.029 C 
ATOM    136  CG1 ILE A  19     -30.351  -9.821   1.079  1.00  0.00    +0.002 C 
ATOM    137  CG2 ILE A  19     -31.804 -11.841   1.202  1.00  0.00    +0.002 C 
ATOM    138  CD1 ILE A  19     -29.216 -10.374   0.233  1.00  0.00    +0.000 C 
ATOM    139  N   ARG A  20     -32.912 -11.681   4.622  1.00  0.00    -0.196 N 
ATOM    140  CA  ARG A  20     -32.800 -13.046   5.125  1.00  0.00    +0.173 C 
ATOM    141  C   ARG A  20     -32.391 -14.004   4.017  1.00  0.00    +0.262 C 
ATOM    142  O   ARG A  20     -31.739 -15.015   4.275  1.00  0.00    -0.271 OA
ATOM    143  CB  ARG A  20     -34.113 -13.509   5.736  1.00  0.00    +0.033 C 
ATOM    144  CG  ARG A  20     -35.239 -13.662   4.726  1.00  0.00    +0.029 C 
ATOM    145  CD  ARG A  20     -35.378 -15.098   4.249  1.00  0.00    +0.129 C 
ATOM    146  NE  ARG A  20     -36.699 -15.352   3.680  1.00  0.00    -0.234 NA
ATOM    147  CZ  ARG A  20     -36.942 -16.170   2.660  1.00  0.00    +0.284 C 
ATOM    148  NH1 ARG A  20     -36.045 -17.083   2.296  1.00  0.00    -0.104 N 
ATOM    149  NH2 ARG A  20     -38.092 -16.074   2.000  1.00  0.00    -0.104 N 
ATOM    150  N   ARG A  21     -32.773 -13.686   2.784  1.00  0.00    -0.194 N 
ATOM    151  CA  ARG A  21     -33.516 -14.629   1.952  1.00  0.00    +0.198 C 
ATOM    152  C   ARG A  21     -32.674 -15.100   0.778  1.00  0.00    +0.384 C 
ATOM    153  O   ARG A  21     -31.773 -15.920   0.943  1.00  0.00    -0.244 OA
ATOM    154  CB  ARG A  21     -34.801 -14.002   1.436  1.00  0.00    +0.035 C 
ATOM    155  CG  ARG A  21     -35.833 -13.737   2.518  1.00  0.00    +0.029 C 
ATOM    156  CD  ARG A  21     -37.175 -13.328   1.932  1.00  0.00    +0.129 C 
ATOM    157  NE  ARG A  21     -37.812 -12.281   2.724  1.00  0.00    -0.234 NA
ATOM    158  CZ  ARG A  21     -39.115 -12.012   2.718  1.00  0.00    +0.284 C 
ATOM    159  NH1 ARG A  21     -39.560 -10.808   3.066  1.00  0.00    -0.104 N 
ATOM    160  NH2 ARG A  21     -39.979 -12.956   2.359  1.00  0.00    -0.104 N 
ATOM    161  OXT ARG A  21     -32.882 -14.667  -0.354  1.00  0.00    -0.244 OA
ATOM    162  H   MET A   1     -12.583  11.056  19.906  1.00  0.00    +0.000 HD
ATOM    163  H   MET A   1     -14.091  11.706  20.188  1.00  0.00    +0.000 HD
ATOM    164  H   LYS A   2     -13.127  14.072  16.637  1.00  0.00    +0.000 HD
ATOM    165  H   LYS A   2     -14.226  19.657  14.190  1.00  0.00    +0.000 HD
ATOM    166  H   GLN A   3     -17.643  13.947  15.698  1.00  0.00    +0.000 HD
ATOM    167  H   GLN A   3     -19.481  10.586  20.310  1.00  0.00    +0.000 HD
ATOM    168  H   GLN A   3     -17.931  10.843  19.646  1.00  0.00    +0.000 HD
ATOM    169  H   ALA A   4     -18.043  10.802  12.611  1.00  0.00    +0.000 HD
ATOM    170  H   VAL A   5     -22.322  11.866  11.032  1.00  0.00    +0.000 HD
ATOM    171  H   ASN A   6     -25.453  10.907  14.170  1.00  0.00    +0.000 HD
ATOM    172  H   ASN A   6     -24.566   8.878  16.073  1.00  0.00    +0.000 HD
ATOM    173  H   ASN A   6     -23.582   7.506  15.837  1.00  0.00    +0.000 HD
ATOM    174  H   ALA A   7     -27.242  11.624  12.599  1.00  0.00    +0.000 HD
ATOM    175  H   LEU A   8     -31.844  10.904  12.643  1.00  0.00    +0.000 HD
ATOM    176  H   LEU A   9     -33.104  11.035   8.249  1.00  0.00    +0.000 HD
ATOM    177  H   VAL A  10     -37.283  10.912   9.975  1.00  0.00    +0.000 HD
ATOM    178  H   PHE A  11     -39.520   8.314   6.746  1.00  0.00    +0.000 HD
ATOM    179  H   PHE A  12     -37.508   6.825   7.394  1.00  0.00    +0.000 HD
ATOM    180  H   ALA A  13     -35.984   5.724   9.172  1.00  0.00    +0.000 HD
ATOM    181  H   GLY A  14     -33.385   1.374   9.986  1.00  0.00    +0.000 HD
ATOM    182  H   SER A  15     -32.191   3.391   5.955  1.00  0.00    +0.000 HD
ATOM    183  H   SER A  15     -30.338   2.263   4.303  1.00  0.00    +0.000 HD
ATOM    184  H   SER A  16     -34.516   0.496   3.380  1.00  0.00    +0.000 HD
ATOM    185  H   SER A  16     -35.217   0.006   1.578  1.00  0.00    +0.000 HD
ATOM    186  H   ASP A  17     -30.434  -1.955   2.402  1.00  0.00    +0.000 HD
ATOM    187  H   ASP A  17     -28.792  -4.045  -0.411  1.00  0.00    +0.000 HD
ATOM    188  H   ALA A  18     -33.438  -5.256   3.304  1.00  0.00    +0.000 HD
ATOM    189  H   ILE A  19     -30.489  -8.617   3.554  1.00  0.00    +0.000 HD
ATOM    190  H   ARG A  20     -33.804 -11.291   4.481  1.00  0.00    +0.000 HD
ATOM    191  H   ARG A  20     -36.234 -17.684   1.540  1.00  0.00    +0.000 HD
ATOM    192  H   ARG A  20     -35.192 -17.157   2.782  1.00  0.00    +0.000 HD
ATOM    193  H   ARG A  20     -38.277 -16.677   1.244  1.00  0.00    +0.000 HD
ATOM    194  H   ARG A  20     -38.758 -15.400   2.266  1.00  0.00    +0.000 HD
ATOM    195  H   ARG A  21     -32.550 -12.797   2.424  1.00  0.00    +0.000 HD
ATOM    196  H   ARG A  21     -31.601 -16.261   1.800  1.00  0.00    +0.000 HD
ATOM    197  H   ARG A  21     -40.527 -10.621   3.059  1.00  0.00    +0.000 HD
ATOM    198  H   ARG A  21     -38.924 -10.106   3.331  1.00  0.00    +0.000 HD
ATOM    199  H   ARG A  21     -40.945 -12.763   2.353  1.00  0.00    +0.000 HD
ATOM    200  H   ARG A  21     -39.654 -13.849   2.099  1.00  0.00    +0.000 HD
ENDROOT
TORSDOF 0
