REMARK  Name = /var/folders/yp/yjbh3p597675h2qddgqr02y00000gn/T/tmpimd74qt8.pdb
REMARK   1 CREATED WITH OPENMM 8.6.1, 2026-10-07
REMARK                            x       y       z     vdW  Elec       q    Type
REMARK                         _______ _______ _______ _____ _____    ______ ____
ROOT
ATOM      1  N   MET A   1     -33.625  14.432  -2.142  1.00  0.00    -0.123 NA
ATOM      2  CA  MET A   1     -32.506  13.666  -2.724  1.00  0.00    +0.170 C 
ATOM      3  C   MET A   1     -31.389  14.607  -3.122  1.00  0.00    +0.259 C 
ATOM      4  O   MET A   1     -31.629  15.670  -3.708  1.00  0.00    -0.272 OA
ATOM      5  CB  MET A   1     -32.953  12.853  -3.953  1.00  0.00    +0.040 C 
ATOM      6  CG  MET A   1     -33.940  11.742  -3.607  1.00  0.00    +0.060 C 
ATOM      7  SD  MET A   1     -35.275  11.622  -4.821  1.00  0.00    -0.139 S 
ATOM      8  CE  MET A   1     -36.694  11.554  -3.701  1.00  0.00    +0.069 C 
ATOM      9  N   LYS A   2     -30.159  14.128  -2.902  1.00  0.00    -0.197 N 
ATOM     10  CA  LYS A   2     -29.276  13.956  -4.028  1.00  0.00    +0.173 C 
ATOM     11  C   LYS A   2     -29.645  12.709  -4.861  1.00  0.00    +0.262 C 
ATOM     12  O   LYS A   2     -29.767  11.631  -4.293  1.00  0.00    -0.271 OA
ATOM     13  CB  LYS A   2     -27.794  13.880  -3.581  1.00  0.00    +0.031 C 
ATOM     14  CG  LYS A   2     -26.740  13.684  -4.687  1.00  0.00    +0.004 C 
ATOM     15  CD  LYS A   2     -26.675  14.859  -5.702  1.00  0.00    +0.021 C 
ATOM     16  CE  LYS A   2     -28.054  15.329  -6.199  1.00  0.00    +0.109 C 
ATOM     17  NZ  LYS A   2     -28.349  15.479  -7.623  1.00  0.00    -0.131 NA
ATOM     18  N   GLN A   3     -29.783  12.814  -6.181  1.00  0.00    -0.196 N 
ATOM     19  CA  GLN A   3     -29.191  11.857  -7.120  1.00  0.00    +0.173 C 
ATOM     20  C   GLN A   3     -27.677  12.013  -7.284  1.00  0.00    +0.262 C 
ATOM     21  O   GLN A   3     -27.199  13.082  -7.608  1.00  0.00    -0.271 OA
ATOM     22  CB  GLN A   3     -29.855  12.074  -8.487  1.00  0.00    +0.041 C 
ATOM     23  CG  GLN A   3     -31.058  11.146  -8.677  1.00  0.00    +0.091 C 
ATOM     24  CD  GLN A   3     -32.272  11.947  -9.100  1.00  0.00    +0.261 C 
ATOM     25  OE1 GLN A   3     -32.700  12.872  -8.417  1.00  0.00    -0.272 OA
ATOM     26  NE2 GLN A   3     -32.855  11.634 -10.235  1.00  0.00    -0.088 N 
ATOM     27  N   ALA A   4     -26.932  10.921  -7.230  1.00  0.00    -0.196 N 
ATOM     28  CA  ALA A   4     -26.172  10.569  -8.422  1.00  0.00    +0.173 C 
ATOM     29  C   ALA A   4     -27.141  10.259  -9.567  1.00  0.00    +0.262 C 
ATOM     30  O   ALA A   4     -28.278   9.835  -9.343  1.00  0.00    -0.271 OA
ATOM     31  CB  ALA A   4     -25.319   9.335  -8.129  1.00  0.00    +0.033 C 
ATOM     32  N   VAL A   5     -26.691  10.411 -10.800  1.00  0.00    -0.196 N 
ATOM     33  CA  VAL A   5     -27.433   9.910 -11.956  1.00  0.00    +0.173 C 
ATOM     34  C   VAL A   5     -27.295   8.390 -12.021  1.00  0.00    +0.262 C 
ATOM     35  O   VAL A   5     -26.188   7.880 -11.860  1.00  0.00    -0.271 OA
ATOM     36  CB  VAL A   5     -26.926  10.593 -13.237  1.00  0.00    +0.029 C 
ATOM     37  CG1 VAL A   5     -27.040  12.112 -13.133  1.00  0.00    +0.002 C 
ATOM     38  CG2 VAL A   5     -25.488  10.219 -13.577  1.00  0.00    +0.002 C 
ATOM     39  N   ASN A   6     -28.413   7.695 -12.279  1.00  0.00    -0.196 N 
ATOM     40  CA  ASN A   6     -28.499   6.764 -13.402  1.00  0.00    +0.182 C 
ATOM     41  C   ASN A   6     -28.580   7.516 -14.751  1.00  0.00    +0.262 C 
ATOM     42  O   ASN A   6     -28.234   6.991 -15.806  1.00  0.00    -0.271 OA
ATOM     43  CB  ASN A   6     -29.667   5.792 -13.314  1.00  0.00    +0.120 C 
ATOM     44  CG  ASN A   6     -29.701   4.854 -14.521  1.00  0.00    +0.263 C 
ATOM     45  OD1 ASN A   6     -30.524   5.006 -15.414  1.00  0.00    -0.272 OA
ATOM     46  ND2 ASN A   6     -28.815   3.882 -14.598  1.00  0.00    -0.088 N 
ATOM     47  N   ALA A   7     -29.110   8.742 -14.703  1.00  0.00    -0.196 N 
ATOM     48  CA  ALA A   7     -29.582   9.493 -15.862  1.00  0.00    +0.173 C 
ATOM     49  C   ALA A   7     -28.543   9.665 -16.974  1.00  0.00    +0.262 C 
ATOM     50  O   ALA A   7     -28.903  10.094 -18.070  1.00  0.00    -0.271 OA
ATOM     51  CB  ALA A   7     -30.099  10.862 -15.401  1.00  0.00    +0.033 C 
ATOM     52  N   LEU A   8     -27.272   9.342 -16.715  1.00  0.00    -0.196 N 
ATOM     53  CA  LEU A   8     -26.251   9.276 -17.742  1.00  0.00    +0.173 C 
ATOM     54  C   LEU A   8     -26.203   7.922 -18.431  1.00  0.00    +0.262 C 
ATOM     55  O   LEU A   8     -26.267   7.865 -19.657  1.00  0.00    -0.271 OA
ATOM     56  CB  LEU A   8     -24.871   9.635 -17.156  1.00  0.00    +0.031 C 
ATOM     57  CG  LEU A   8     -24.147  10.838 -17.762  1.00  0.00    +0.002 C 
ATOM     58  CD1 LEU A   8     -23.897  11.907 -16.712  1.00  0.00    +0.000 C 
ATOM     59  CD2 LEU A   8     -24.900  11.546 -18.879  1.00  0.00    +0.000 C 
ATOM     60  N   LEU A   9     -26.059   6.842 -17.659  1.00  0.00    -0.196 N 
ATOM     61  CA  LEU A   9     -24.748   6.221 -17.395  1.00  0.00    +0.173 C 
ATOM     62  C   LEU A   9     -24.211   5.570 -18.656  1.00  0.00    +0.262 C 
ATOM     63  O   LEU A   9     -24.402   4.373 -18.882  1.00  0.00    -0.271 OA
ATOM     64  CB  LEU A   9     -24.813   5.170 -16.285  1.00  0.00    +0.031 C 
ATOM     65  CG  LEU A   9     -24.482   5.692 -14.888  1.00  0.00    +0.002 C 
ATOM     66  CD1 LEU A   9     -24.121   4.538 -13.960  1.00  0.00    +0.000 C 
ATOM     67  CD2 LEU A   9     -25.709   6.253 -14.298  1.00  0.00    +0.000 C 
ATOM     68  N   VAL A  10     -23.567   6.369 -19.498  1.00  0.00    -0.196 N 
ATOM     69  CA  VAL A  10     -23.373   5.994 -20.895  1.00  0.00    +0.173 C 
ATOM     70  C   VAL A  10     -22.403   4.825 -21.007  1.00  0.00    +0.262 C 
ATOM     71  O   VAL A  10     -21.297   4.873 -20.465  1.00  0.00    -0.271 OA
ATOM     72  CB  VAL A  10     -22.883   7.184 -21.736  1.00  0.00    +0.029 C 
ATOM     73  CG1 VAL A  10     -23.013   6.875 -23.229  1.00  0.00    +0.002 C 
ATOM     74  CG2 VAL A  10     -23.682   8.461 -21.458  1.00  0.00    +0.002 C 
ATOM     75  N   PHE A  11     -22.799   3.793 -21.750  1.00  0.00    -0.196 N 
ATOM     76  CA  PHE A  11     -21.844   2.899 -22.401  1.00  0.00    +0.177 C 
ATOM     77  C   PHE A  11     -21.418   3.520 -23.739  1.00  0.00    +0.262 C 
ATOM     78  O   PHE A  11     -22.256   3.787 -24.597  1.00  0.00    -0.271 OA
ATOM     79  CB  PHE A  11     -22.481   1.528 -22.608  1.00  0.00    +0.057 C 
ATOM     80  CG  PHE A  11     -21.496   0.488 -23.077  1.00  0.00    -0.020 A 
ATOM     81  CD1 PHE A  11     -20.771  -0.252 -22.130  1.00  0.00    -0.004 A 
ATOM     82  CE1 PHE A  11     -19.888  -1.252 -22.572  1.00  0.00    -0.000 A 
ATOM     83  CD2 PHE A  11     -21.335   0.221 -24.450  1.00  0.00    -0.004 A 
ATOM     84  CE2 PHE A  11     -20.389  -0.726 -24.880  1.00  0.00    -0.000 A 
ATOM     85  CZ  PHE A  11     -19.649  -1.454 -23.937  1.00  0.00    -0.000 A 
ATOM     86  N   PHE A  12     -20.141   3.797 -23.972  1.00  0.00    -0.196 N 
ATOM     87  CA  PHE A  12     -19.183   2.728 -24.233  1.00  0.00    +0.177 C 
ATOM     88  C   PHE A  12     -18.627   2.122 -22.958  1.00  0.00    +0.262 C 
ATOM     89  O   PHE A  12     -18.465   0.924 -22.873  1.00  0.00    -0.271 OA
ATOM     90  CB  PHE A  12     -18.054   3.260 -25.139  1.00  0.00    +0.057 C 
ATOM     91  CG  PHE A  12     -16.652   2.770 -24.808  1.00  0.00    -0.020 A 
ATOM     92  CD1 PHE A  12     -16.400   1.463 -24.361  1.00  0.00    -0.004 A 
ATOM     93  CE1 PHE A  12     -15.181   1.081 -23.812  1.00  0.00    -0.000 A 
ATOM     94  CD2 PHE A  12     -15.552   3.611 -24.997  1.00  0.00    -0.004 A 
ATOM     95  CE2 PHE A  12     -14.270   3.172 -24.628  1.00  0.00    -0.000 A 
ATOM     96  CZ  PHE A  12     -14.093   1.936 -23.984  1.00  0.00    -0.000 A 
ATOM     97  N   ALA A  13     -18.216   2.947 -22.005  1.00  0.00    -0.196 N 
ATOM     98  CA  ALA A  13     -16.976   2.672 -21.271  1.00  0.00    +0.173 C 
ATOM     99  C   ALA A  13     -16.972   1.352 -20.488  1.00  0.00    +0.262 C 
ATOM    100  O   ALA A  13     -15.914   0.851 -20.106  1.00  0.00    -0.271 OA
ATOM    101  CB  ALA A  13     -16.735   3.846 -20.323  1.00  0.00    +0.033 C 
ATOM    102  N   GLY A  14     -18.166   0.852 -20.180  1.00  0.00    -0.194 N 
ATOM    103  CA  GLY A  14     -18.437  -0.035 -19.067  1.00  0.00    +0.201 C 
ATOM    104  C   GLY A  14     -18.263  -1.505 -19.397  1.00  0.00    +0.264 C 
ATOM    105  O   GLY A  14     -17.739  -1.883 -20.447  1.00  0.00    -0.271 OA
ATOM    106  N   SER A  15     -18.676  -2.353 -18.462  1.00  0.00    -0.194 N 
ATOM    107  CA  SER A  15     -18.536  -3.799 -18.614  1.00  0.00    +0.205 C 
ATOM    108  C   SER A  15     -19.437  -4.317 -19.727  1.00  0.00    +0.264 C 
ATOM    109  O   SER A  15     -20.417  -3.678 -20.124  1.00  0.00    -0.271 OA
ATOM    110  CB  SER A  15     -18.842  -4.525 -17.305  1.00  0.00    +0.213 C 
ATOM    111  OG  SER A  15     -20.230  -4.502 -17.029  1.00  0.00    -0.218 OA
ATOM    112  N   SER A  16     -19.112  -5.496 -20.233  1.00  0.00    -0.194 N 
ATOM    113  CA  SER A  16     -19.956  -6.142 -21.219  1.00  0.00    +0.205 C 
ATOM    114  C   SER A  16     -21.350  -6.444 -20.663  1.00  0.00    +0.264 C 
ATOM    115  O   SER A  16     -21.526  -6.693 -19.467  1.00  0.00    -0.271 OA
ATOM    116  CB  SER A  16     -19.272  -7.412 -21.652  1.00  0.00    +0.213 C 
ATOM    117  OG  SER A  16     -19.206  -8.324 -20.563  1.00  0.00    -0.218 OA
ATOM    118  N   ASP A  17     -22.346  -6.479 -21.547  1.00  0.00    -0.196 N 
ATOM    119  CA  ASP A  17     -23.535  -7.310 -21.320  1.00  0.00    +0.184 C 
ATOM    120  C   ASP A  17     -23.259  -8.779 -21.667  1.00  0.00    +0.262 C 
ATOM    121  O   ASP A  17     -24.089  -9.649 -21.383  1.00  0.00    -0.271 OA
ATOM    122  CB  ASP A  17     -24.749  -6.735 -22.071  1.00  0.00    +0.145 C 
ATOM    123  CG  ASP A  17     -25.401  -7.630 -23.150  1.00  0.00    +0.367 C 
ATOM    124  OD1 ASP A  17     -24.929  -8.707 -23.565  1.00  0.00    -0.246 OA
ATOM    125  OD2 ASP A  17     -26.448  -7.224 -23.686  1.00  0.00    -0.246 OA
ATOM    126  N   ALA A  18     -22.141  -9.061 -22.335  1.00  0.00    -0.196 N 
ATOM    127  CA  ALA A  18     -21.747 -10.411 -22.693  1.00  0.00    +0.173 C 
ATOM    128  C   ALA A  18     -20.372 -10.752 -22.144  1.00  0.00    +0.262 C 
ATOM    129  O   ALA A  18     -19.404 -10.034 -22.348  1.00  0.00    -0.271 OA
ATOM    130  CB  ALA A  18     -21.766 -10.572 -24.215  1.00  0.00    +0.033 C 
ATOM    131  N   ILE A  19     -20.223 -11.926 -21.563  1.00  0.00    -0.196 N 
ATOM    132  CA  ILE A  19     -18.973 -12.671 -21.699  1.00  0.00    +0.173 C 
ATOM    133  C   ILE A  19     -19.247 -13.887 -22.568  1.00  0.00    +0.262 C 
ATOM    134  O   ILE A  19     -20.293 -14.528 -22.451  1.00  0.00    -0.271 OA
ATOM    135  CB  ILE A  19     -18.408 -13.048 -20.318  1.00  0.00    +0.029 C 
ATOM    136  CG1 ILE A  19     -17.408 -11.968 -19.860  1.00  0.00    +0.002 C 
ATOM    137  CG2 ILE A  19     -17.703 -14.405 -20.298  1.00  0.00    +0.002 C 
ATOM    138  CD1 ILE A  19     -17.083 -12.049 -18.367  1.00  0.00    +0.000 C 
ATOM    139  N   ARG A  20     -18.269 -14.252 -23.390  1.00  0.00    -0.196 N 
ATOM    140  CA  ARG A  20     -18.103 -15.632 -23.845  1.00  0.00    +0.173 C 
ATOM    141  C   ARG A  20     -17.452 -16.491 -22.768  1.00  0.00    +0.262 C 
ATOM    142  O   ARG A  20     -16.367 -16.172 -22.265  1.00  0.00    -0.271 OA
ATOM    143  CB  ARG A  20     -17.304 -15.702 -25.155  1.00  0.00    +0.033 C 
ATOM    144  CG  ARG A  20     -15.785 -15.498 -25.016  1.00  0.00    +0.029 C 
ATOM    145  CD  ARG A  20     -15.439 -14.193 -24.286  1.00  0.00    +0.129 C 
ATOM    146  NE  ARG A  20     -14.001 -13.973 -24.188  1.00  0.00    -0.234 NA
ATOM    147  CZ  ARG A  20     -13.446 -12.850 -23.781  1.00  0.00    +0.284 C 
ATOM    148  NH1 ARG A  20     -14.150 -11.815 -23.405  1.00  0.00    -0.104 N 
ATOM    149  NH2 ARG A  20     -12.151 -12.745 -23.755  1.00  0.00    -0.104 N 
ATOM    150  N   ARG A  21     -18.082 -17.627 -22.481  1.00  0.00    -0.194 N 
ATOM    151  CA  ARG A  21     -17.352 -18.792 -22.022  1.00  0.00    +0.198 C 
ATOM    152  C   ARG A  21     -17.270 -19.904 -23.060  1.00  0.00    +0.384 C 
ATOM    153  O   ARG A  21     -18.108 -19.907 -23.968  1.00  0.00    -0.244 OA
ATOM    154  CB  ARG A  21     -17.803 -19.259 -20.628  1.00  0.00    +0.035 C 
ATOM    155  CG  ARG A  21     -16.954 -20.403 -20.050  1.00  0.00    +0.029 C 
ATOM    156  CD  ARG A  21     -15.433 -20.148 -19.979  1.00  0.00    +0.129 C 
ATOM    157  NE  ARG A  21     -14.805 -19.445 -21.114  1.00  0.00    -0.234 NA
ATOM    158  CZ  ARG A  21     -14.090 -19.893 -22.123  1.00  0.00    +0.284 C 
ATOM    159  NH1 ARG A  21     -13.826 -21.159 -22.270  1.00  0.00    -0.104 N 
ATOM    160  NH2 ARG A  21     -13.591 -19.046 -22.981  1.00  0.00    -0.104 N 
ATOM    161  OXT ARG A  21     -16.410 -20.794 -23.015  1.00  0.00    -0.244 OA
ATOM    162  H   MET A   1     -33.293  14.957  -1.333  1.00  0.00    +0.000 HD
ATOM    163  H   MET A   1     -34.364  13.790  -1.853  1.00  0.00    +0.000 HD
ATOM    164  H   LYS A   2     -29.864  13.899  -1.991  1.00  0.00    +0.000 HD
ATOM    165  H   LYS A   2     -27.794  16.244  -8.006  1.00  0.00    +0.000 HD
ATOM    166  H   LYS A   2     -29.341  15.684  -7.745  1.00  0.00    +0.000 HD
ATOM    167  H   GLN A   3     -30.306  13.566  -6.542  1.00  0.00    +0.000 HD
ATOM    168  H   GLN A   3     -32.507  10.891 -10.779  1.00  0.00    +0.000 HD
ATOM    169  H   GLN A   3     -33.641  12.143 -10.542  1.00  0.00    +0.000 HD
ATOM    170  H   ALA A   4     -26.892  10.368  -6.416  1.00  0.00    +0.000 HD
ATOM    171  H   VAL A   5     -25.834  10.874 -10.944  1.00  0.00    +0.000 HD
ATOM    172  H   ASN A   6     -29.197   7.814 -11.696  1.00  0.00    +0.000 HD
ATOM    173  H   ASN A   6     -28.153   3.760 -13.880  1.00  0.00    +0.000 HD
ATOM    174  H   ASN A   6     -28.815   3.277 -15.374  1.00  0.00    +0.000 HD
ATOM    175  H   ALA A   7     -29.188   9.170 -13.820  1.00  0.00    +0.000 HD
ATOM    176  H   LEU A   8     -27.018   9.140 -15.785  1.00  0.00    +0.000 HD
ATOM    177  H   LEU A   9     -26.861   6.444 -17.250  1.00  0.00    +0.000 HD
ATOM    178  H   VAL A  10     -23.214   7.230 -19.175  1.00  0.00    +0.000 HD
ATOM    179  H   PHE A  11     -23.763   3.628 -21.865  1.00  0.00    +0.000 HD
ATOM    180  H   PHE A  12     -19.837   4.733 -23.969  1.00  0.00    +0.000 HD
ATOM    181  H   ALA A  13     -18.745   3.749 -21.788  1.00  0.00    +0.000 HD
ATOM    182  H   GLY A  14     -18.925   1.104 -20.754  1.00  0.00    +0.000 HD
ATOM    183  H   SER A  15     -19.088  -1.997 -17.642  1.00  0.00    +0.000 HD
ATOM    184  H   SER A  15     -20.527  -3.583 -16.944  1.00  0.00    +0.000 HD
ATOM    185  H   SER A  16     -18.285  -5.940 -19.937  1.00  0.00    +0.000 HD
ATOM    186  H   SER A  16     -18.700  -7.925 -19.838  1.00  0.00    +0.000 HD
ATOM    187  H   ASP A  17     -22.283  -5.939 -22.366  1.00  0.00    +0.000 HD
ATOM    188  H   ASP A  17     -26.837  -6.419 -23.404  1.00  0.00    +0.000 HD
ATOM    189  H   ALA A  18     -21.553  -8.316 -22.598  1.00  0.00    +0.000 HD
ATOM    190  H   ILE A  19     -20.961 -12.305 -21.034  1.00  0.00    +0.000 HD
ATOM    191  H   ARG A  20     -17.633 -13.569 -23.704  1.00  0.00    +0.000 HD
ATOM    192  H   ARG A  20     -13.697 -10.993 -23.106  1.00  0.00    +0.000 HD
ATOM    193  H   ARG A  20     -15.134 -11.856 -23.419  1.00  0.00    +0.000 HD
ATOM    194  H   ARG A  20     -11.731 -11.908 -23.451  1.00  0.00    +0.000 HD
ATOM    195  H   ARG A  20     -11.590 -13.503 -24.039  1.00  0.00    +0.000 HD
ATOM    196  H   ARG A  21     -19.061 -17.677 -22.581  1.00  0.00    +0.000 HD
ATOM    197  H   ARG A  21     -18.760 -19.236 -24.006  1.00  0.00    +0.000 HD
ATOM    198  H   ARG A  21     -13.288 -21.464 -23.036  1.00  0.00    +0.000 HD
ATOM    199  H   ARG A  21     -14.163 -21.811 -21.615  1.00  0.00    +0.000 HD
ATOM    200  H   ARG A  21     -13.779 -18.084 -22.889  1.00  0.00    +0.000 HD
ATOM    201  H   ARG A  21     -13.027 -19.369 -23.720  1.00  0.00    +0.000 HD
ENDROOT
TORSDOF 0
