REMARK  Name = /var/folders/yp/yjbh3p597675h2qddgqr02y00000gn/T/tmpg5d1cbt2.pdb
REMARK     285 UNITARY VALUES FOR THE UNIT CELL AUTOMATICALLY SET
REMARK     285 BY MDANALYSIS PDBWRITER BECAUSE UNIT CELL INFORMATION
REMARK     285 WAS MISSING.
REMARK     285 PROTEIN DATA BANK CONVENTIONS REQUIRE THAT
REMARK     285 CRYST1 RECORD IS INCLUDED, BUT THE VALUES ON
REMARK     285 THIS RECORD ARE MEANINGLESS.
REMARK     285 UNITARY VALUES FOR THE UNIT CELL AUTOMATICALLY SET
REMARK     285 BY MDANALYSIS PDBWRITER BECAUSE UNIT CELL INFORMATION
REMARK     285 WAS MISSING.
REMARK     285 PROTEIN DATA BANK CONVENTIONS REQUIRE THAT
REMARK     285 CRYST1 RECORD IS INCLUDED, BUT THE VALUES ON
REMARK     285 THIS RECORD ARE MEANINGLESS.
REMARK                            x       y       z     vdW  Elec       q    Type
REMARK                         _______ _______ _______ _____ _____    ______ ____
REMARK  Name = /var/folders/yp/yjbh3p597675h2qddgqr02y00000gn/T/tmpg5d1cbt2.pdb
REMARK     285 UNITARY VALUES FOR THE UNIT CELL AUTOMATICALLY SET
REMARK     285 BY MDANALYSIS PDBWRITER BECAUSE UNIT CELL INFORMATION
REMARK     285 WAS MISSING.
REMARK     285 PROTEIN DATA BANK CONVENTIONS REQUIRE THAT
REMARK     285 CRYST1 RECORD IS INCLUDED, BUT THE VALUES ON
REMARK     285 THIS RECORD ARE MEANINGLESS.
REMARK     285 UNITARY VALUES FOR THE UNIT CELL AUTOMATICALLY SET
REMARK     285 BY MDANALYSIS PDBWRITER BECAUSE UNIT CELL INFORMATION
REMARK     285 WAS MISSING.
REMARK     285 PROTEIN DATA BANK CONVENTIONS REQUIRE THAT
REMARK     285 CRYST1 RECORD IS INCLUDED, BUT THE VALUES ON
REMARK     285 THIS RECORD ARE MEANINGLESS.
REMARK                            x       y       z     vdW  Elec       q    Type
REMARK                         _______ _______ _______ _____ _____    ______ ____
ROOT
ATOM      1  N   MET A   1     -11.069  -0.010   2.461  1.00  0.00    -0.123 NA
ATOM      2  CA  MET A   1     -11.560   0.422   1.154  1.00  0.00    +0.170 C 
ATOM      3  C   MET A   1     -10.686   1.526   0.584  1.00  0.00    +0.259 C 
ATOM      4  O   MET A   1     -10.021   2.245   1.328  1.00  0.00    -0.272 OA
ATOM      5  CB  MET A   1     -12.997   0.912   1.251  1.00  0.00    +0.040 C 
ATOM      6  CG  MET A   1     -14.010  -0.204   1.449  1.00  0.00    +0.060 C 
ATOM      7  SD  MET A   1     -15.720   0.376   1.324  1.00  0.00    -0.139 S 
ATOM      8  CE  MET A   1     -16.595  -1.033   1.997  1.00  0.00    +0.069 C 
ATOM      9  N   LYS A   2     -10.686   1.662  -0.739  1.00  0.00    -0.197 N 
ATOM     10  CA  LYS A   2     -10.618   2.978  -1.368  1.00  0.00    +0.173 C 
ATOM     11  C   LYS A   2     -11.857   3.800  -1.050  1.00  0.00    +0.262 C 
ATOM     12  O   LYS A   2     -12.977   3.300  -1.137  1.00  0.00    -0.271 OA
ATOM     13  CB  LYS A   2     -10.467   2.851  -2.874  1.00  0.00    +0.031 C 
ATOM     14  CG  LYS A   2     -10.620   4.167  -3.621  1.00  0.00    +0.009 C 
ATOM     15  CD  LYS A   2     -10.554   3.972  -5.127  1.00  0.00    +0.049 C 
ATOM     16  CE  LYS A   2     -11.792   3.398  -5.651  1.00  0.00    +0.096 C 
ATOM     17  NZ  LYS A   2     -11.967   2.990  -6.904  1.00  0.00    -0.151 NA
ATOM     18  N   GLN A   3     -11.656   5.062  -0.681  1.00  0.00    -0.196 N 
ATOM     19  CA  GLN A   3     -12.763   6.009  -0.577  1.00  0.00    +0.173 C 
ATOM     20  C   GLN A   3     -13.154   6.547  -1.943  1.00  0.00    +0.262 C 
ATOM     21  O   GLN A   3     -12.291   6.907  -2.742  1.00  0.00    -0.271 OA
ATOM     22  CB  GLN A   3     -12.403   7.165   0.341  1.00  0.00    +0.041 C 
ATOM     23  CG  GLN A   3     -13.546   8.138   0.579  1.00  0.00    +0.091 C 
ATOM     24  CD  GLN A   3     -13.188   9.236   1.568  1.00  0.00    +0.261 C 
ATOM     25  OE1 GLN A   3     -12.542   8.981   2.596  1.00  0.00    -0.272 OA
ATOM     26  NE2 GLN A   3     -13.601  10.464   1.267  1.00  0.00    -0.088 N 
ATOM     27  N   ALA A   4     -14.455   6.600  -2.214  1.00  0.00    -0.196 N 
ATOM     28  CA  ALA A   4     -14.949   7.180  -3.459  1.00  0.00    +0.173 C 
ATOM     29  C   ALA A   4     -14.733   8.685  -3.484  1.00  0.00    +0.262 C 
ATOM     30  O   ALA A   4     -14.913   9.361  -2.473  1.00  0.00    -0.271 OA
ATOM     31  CB  ALA A   4     -16.427   6.876  -3.646  1.00  0.00    +0.033 C 
ATOM     32  N   VAL A   5     -14.346   9.212  -4.643  1.00  0.00    -0.196 N 
ATOM     33  CA  VAL A   5     -14.633  10.603  -4.978  1.00  0.00    +0.173 C 
ATOM     34  C   VAL A   5     -15.746  10.664  -6.010  1.00  0.00    +0.262 C 
ATOM     35  O   VAL A   5     -15.782   9.858  -6.940  1.00  0.00    -0.271 OA
ATOM     36  CB  VAL A   5     -13.405  11.322  -5.514  1.00  0.00    +0.029 C 
ATOM     37  CG1 VAL A   5     -12.398  11.577  -4.394  1.00  0.00    +0.002 C 
ATOM     38  CG2 VAL A   5     -12.718  10.477  -6.583  1.00  0.00    +0.002 C 
ATOM     39  N   ASN A   6     -16.657  11.620  -5.850  1.00  0.00    -0.196 N 
ATOM     40  CA  ASN A   6     -17.376  11.783  -4.589  1.00  0.00    +0.182 C 
ATOM     41  C   ASN A   6     -18.719  11.072  -4.619  1.00  0.00    +0.262 C 
ATOM     42  O   ASN A   6     -19.441  11.058  -3.622  1.00  0.00    -0.271 OA
ATOM     43  CB  ASN A   6     -17.587  13.253  -4.269  1.00  0.00    +0.120 C 
ATOM     44  CG  ASN A   6     -17.356  14.154  -5.472  1.00  0.00    +0.263 C 
ATOM     45  OD1 ASN A   6     -18.124  14.132  -6.432  1.00  0.00    -0.272 OA
ATOM     46  ND2 ASN A   6     -16.290  14.948  -5.420  1.00  0.00    -0.088 N 
ATOM     47  N   ALA A   7     -19.056  10.482  -5.762  1.00  0.00    -0.196 N 
ATOM     48  CA  ALA A   7     -20.112  11.022  -6.614  1.00  0.00    +0.173 C 
ATOM     49  C   ALA A   7     -21.445  11.048  -5.882  1.00  0.00    +0.262 C 
ATOM     50  O   ALA A   7     -21.730  10.166  -5.075  1.00  0.00    -0.271 OA
ATOM     51  CB  ALA A   7     -20.249  10.205  -7.889  1.00  0.00    +0.033 C 
ATOM     52  N   LEU A   8     -22.259  12.062  -6.164  1.00  0.00    -0.196 N 
ATOM     53  CA  LEU A   8     -23.703  11.947  -5.985  1.00  0.00    +0.173 C 
ATOM     54  C   LEU A   8     -24.371  11.459  -7.258  1.00  0.00    +0.262 C 
ATOM     55  O   LEU A   8     -25.343  10.705  -7.204  1.00  0.00    -0.271 OA
ATOM     56  CB  LEU A   8     -24.302  13.285  -5.579  1.00  0.00    +0.031 C 
ATOM     57  CG  LEU A   8     -23.948  13.784  -4.176  1.00  0.00    +0.002 C 
ATOM     58  CD1 LEU A   8     -24.482  15.197  -3.968  1.00  0.00    +0.000 C 
ATOM     59  CD2 LEU A   8     -22.456  14.083  -4.076  1.00  0.00    +0.000 C 
ATOM     60  N   LEU A   9     -23.852  11.885  -8.407  1.00  0.00    -0.196 N 
ATOM     61  CA  LEU A   9     -24.444  12.997  -9.143  1.00  0.00    +0.173 C 
ATOM     62  C   LEU A   9     -25.752  12.579  -9.795  1.00  0.00    +0.262 C 
ATOM     63  O   LEU A   9     -25.916  11.426 -10.187  1.00  0.00    -0.271 OA
ATOM     64  CB  LEU A   9     -23.488  13.507 -10.208  1.00  0.00    +0.031 C 
ATOM     65  CG  LEU A   9     -22.393  14.464  -9.727  1.00  0.00    +0.002 C 
ATOM     66  CD1 LEU A   9     -21.052  14.083 -10.342  1.00  0.00    +0.000 C 
ATOM     67  CD2 LEU A   9     -22.060  14.202  -8.262  1.00  0.00    +0.000 C 
ATOM     68  N   VAL A  10     -26.687  13.518  -9.909  1.00  0.00    -0.196 N 
ATOM     69  CA  VAL A  10     -27.378  13.753 -11.175  1.00  0.00    +0.173 C 
ATOM     70  C   VAL A  10     -27.246  15.216 -11.568  1.00  0.00    +0.262 C 
ATOM     71  O   VAL A  10     -27.691  16.100 -10.840  1.00  0.00    -0.271 OA
ATOM     72  CB  VAL A  10     -28.848  13.378 -11.096  1.00  0.00    +0.029 C 
ATOM     73  CG1 VAL A  10     -29.222  12.424 -12.228  1.00  0.00    +0.002 C 
ATOM     74  CG2 VAL A  10     -29.150  12.679  -9.773  1.00  0.00    +0.002 C 
ATOM     75  N   PHE A  11     -26.636  15.471 -12.722  1.00  0.00    -0.196 N 
ATOM     76  CA  PHE A  11     -25.471  16.349 -12.788  1.00  0.00    +0.177 C 
ATOM     77  C   PHE A  11     -25.894  17.784 -13.055  1.00  0.00    +0.262 C 
ATOM     78  O   PHE A  11     -25.308  18.720 -12.513  1.00  0.00    -0.271 OA
ATOM     79  CB  PHE A  11     -24.508  15.893 -13.871  1.00  0.00    +0.058 C 
ATOM     80  CG  PHE A  11     -25.092  15.916 -15.253  1.00  0.00    -0.009 C 
ATOM     81  CD1 PHE A  11     -24.964  17.053 -16.043  1.00  0.00    +0.047 C 
ATOM     82  CE1 PHE A  11     -25.506  17.074 -17.323  1.00  0.00    +0.124 C 
ATOM     83  CD2 PHE A  11     -25.761  14.801 -15.743  1.00  0.00    -0.005 C 
ATOM     84  CE2 PHE A  11     -26.303  14.822 -17.023  1.00  0.00    +0.005 C 
ATOM     85  CZ  PHE A  11     -26.175  15.958 -17.813  1.00  0.00    +0.161 C 
ATOM     86  N   PHE A  12     -26.911  17.960 -13.892  1.00  0.00    -0.196 N 
ATOM     87  CA  PHE A  12     -26.818  17.569 -15.297  1.00  0.00    +0.176 C 
ATOM     88  C   PHE A  12     -25.824  18.450 -16.035  1.00  0.00    +0.250 C 
ATOM     89  O   PHE A  12     -25.831  19.669 -15.875  1.00  0.00    -0.273 OA
ATOM     90  CB  PHE A  12     -28.175  17.654 -15.975  1.00  0.00    +0.057 C 
ATOM     91  CG  PHE A  12     -29.131  16.577 -15.557  1.00  0.00    -0.020 A 
ATOM     92  CD1 PHE A  12     -29.575  16.513 -14.241  1.00  0.00    -0.004 A 
ATOM     93  CE1 PHE A  12     -30.461  15.513 -13.853  1.00  0.00    -0.000 A 
ATOM     94  CD2 PHE A  12     -29.575  15.643 -16.485  1.00  0.00    -0.004 A 
ATOM     95  CE2 PHE A  12     -30.461  14.643 -16.099  1.00  0.00    -0.000 A 
ATOM     96  CZ  PHE A  12     -30.904  14.580 -14.782  1.00  0.00    -0.000 A 
ATOM     97  N   ALA A  13     -24.968  17.832 -16.845  1.00  0.00    -0.255 N 
ATOM     98  CA  ALA A  13     -25.061  17.969 -18.295  1.00  0.00    +0.029 C 
ATOM     99  C   ALA A  13     -26.298  17.268 -18.833  1.00  0.00    +0.235 C 
ATOM    100  O   ALA A  13     -26.842  16.376 -18.183  1.00  0.00    -0.332 OA
ATOM    101  N   GLY A  14     -26.742  17.670 -20.020  1.00  0.00    -0.179 NA
ATOM    102  CA  GLY A  14     -26.892  16.735 -21.131  1.00  0.00    +0.178 C 
ATOM    103  C   GLY A  14     -25.611  16.650 -21.946  1.00  0.00    +0.260 C 
ATOM    104  O   GLY A  14     -24.639  17.345 -21.655  1.00  0.00    -0.272 OA
ATOM    105  N   SER A  15     -25.610  15.800 -22.969  1.00  0.00    -0.194 N 
ATOM    106  CA  SER A  15     -24.800  16.042 -24.159  1.00  0.00    +0.205 C 
ATOM    107  C   SER A  15     -25.325  17.231 -24.948  1.00  0.00    +0.264 C 
ATOM    108  O   SER A  15     -26.525  17.497 -24.952  1.00  0.00    -0.271 OA
ATOM    109  CB  SER A  15     -24.775  14.812 -25.051  1.00  0.00    +0.213 C 
ATOM    110  OG  SER A  15     -25.965  14.721 -25.814  1.00  0.00    -0.218 OA
ATOM    111  N   SER A  16     -24.425  17.947 -25.616  1.00  0.00    -0.194 N 
ATOM    112  CA  SER A  16     -24.666  18.380 -26.990  1.00  0.00    +0.205 C 
ATOM    113  C   SER A  16     -24.751  17.194 -27.936  1.00  0.00    +0.264 C 
ATOM    114  O   SER A  16     -24.112  16.167 -27.708  1.00  0.00    -0.271 OA
ATOM    115  CB  SER A  16     -23.567  19.323 -27.454  1.00  0.00    +0.213 C 
ATOM    116  OG  SER A  16     -22.407  18.598 -27.827  1.00  0.00    -0.218 OA
ATOM    117  N   ASP A  17     -25.540  17.332 -28.996  1.00  0.00    -0.196 N 
ATOM    118  CA  ASP A  17     -25.512  16.371 -30.095  1.00  0.00    +0.184 C 
ATOM    119  C   ASP A  17     -24.461  16.749 -31.125  1.00  0.00    +0.262 C 
ATOM    120  O   ASP A  17     -24.183  15.981 -32.045  1.00  0.00    -0.271 OA
ATOM    121  CB  ASP A  17     -26.872  16.277 -30.769  1.00  0.00    +0.145 C 
ATOM    122  CG  ASP A  17     -27.987  15.898 -29.808  1.00  0.00    +0.367 C 
ATOM    123  OD1 ASP A  17     -27.713  15.231 -28.787  1.00  0.00    -0.246 OA
ATOM    124  OD2 ASP A  17     -29.150  16.269 -30.077  1.00  0.00    -0.246 OA
ATOM    125  N   ALA A  18     -23.876  17.935 -30.974  1.00  0.00    -0.196 N 
ATOM    126  CA  ALA A  18     -23.009  18.492 -32.007  1.00  0.00    +0.173 C 
ATOM    127  C   ALA A  18     -21.607  18.733 -31.470  1.00  0.00    +0.262 C 
ATOM    128  O   ALA A  18     -21.441  19.226 -30.355  1.00  0.00    -0.271 OA
ATOM    129  CB  ALA A  18     -23.578  19.794 -32.544  1.00  0.00    +0.033 C 
ATOM    130  N   ILE A  19     -20.596  18.389 -32.263  1.00  0.00    -0.196 N 
ATOM    131  CA  ILE A  19     -20.159  17.000 -32.376  1.00  0.00    +0.173 C 
ATOM    132  C   ILE A  19     -18.751  16.859 -31.820  1.00  0.00    +0.262 C 
ATOM    133  O   ILE A  19     -17.878  17.671 -32.119  1.00  0.00    -0.271 OA
ATOM    134  CB  ILE A  19     -20.189  16.510 -33.815  1.00  0.00    +0.029 C 
ATOM    135  CG1 ILE A  19     -21.498  16.906 -34.492  1.00  0.00    +0.002 C 
ATOM    136  CG2 ILE A  19     -20.032  14.992 -33.863  1.00  0.00    +0.002 C 
ATOM    137  CD1 ILE A  19     -21.341  17.321 -35.946  1.00  0.00    +0.000 C 
ATOM    138  N   ARG A  20     -18.530  15.826 -31.013  1.00  0.00    -0.196 N 
ATOM    139  CA  ARG A  20     -17.202  15.235 -30.881  1.00  0.00    +0.173 C 
ATOM    140  C   ARG A  20     -16.834  14.437 -32.120  1.00  0.00    +0.262 C 
ATOM    141  O   ARG A  20     -15.684  14.455 -32.557  1.00  0.00    -0.271 OA
ATOM    142  CB  ARG A  20     -17.127  14.335 -29.658  1.00  0.00    +0.033 C 
ATOM    143  CG  ARG A  20     -15.738  13.779 -29.390  1.00  0.00    +0.029 C 
ATOM    144  CD  ARG A  20     -15.132  14.362 -28.122  1.00  0.00    +0.129 C 
ATOM    145  NE  ARG A  20     -14.325  13.378 -27.408  1.00  0.00    -0.234 NA
ATOM    146  CZ  ARG A  20     -13.978  13.466 -26.127  1.00  0.00    +0.284 C 
ATOM    147  NH1 ARG A  20     -14.369  14.500 -25.389  1.00  0.00    -0.104 N 
ATOM    148  NH2 ARG A  20     -13.233  12.510 -25.581  1.00  0.00    -0.104 N 
ATOM    149  N   ARG A  21     -17.811  13.736 -32.690  1.00  0.00    -0.194 N 
ATOM    150  CA  ARG A  21     -17.605  12.357 -33.122  1.00  0.00    +0.198 C 
ATOM    151  C   ARG A  21     -17.546  12.266 -34.639  1.00  0.00    +0.384 C 
ATOM    152  O   ARG A  21     -17.286  11.199 -35.192  1.00  0.00    -0.244 OA
ATOM    153  CB  ARG A  21     -18.710  11.455 -32.602  1.00  0.00    +0.035 C 
ATOM    154  CG  ARG A  21     -18.683  11.255 -31.095  1.00  0.00    +0.029 C 
ATOM    155  CD  ARG A  21     -19.615  12.221 -30.381  1.00  0.00    +0.129 C 
ATOM    156  NE  ARG A  21     -19.532  12.077 -28.930  1.00  0.00    -0.234 NA
ATOM    157  CZ  ARG A  21     -20.469  11.520 -28.169  1.00  0.00    +0.284 C 
ATOM    158  NH1 ARG A  21     -21.488  10.864 -28.716  1.00  0.00    -0.104 N 
ATOM    159  NH2 ARG A  21     -20.387  11.621 -26.845  1.00  0.00    -0.104 N 
ATOM    160  OXT ARG A  21     -17.761  13.259 -35.333  1.00  0.00    -0.244 OA
ATOM    161  H   MET A   1     -11.671  -0.751   2.822  1.00  0.00    +0.000 HD
ATOM    162  H   MET A   1     -11.077   0.780   3.106  1.00  0.00    +0.000 HD
ATOM    163  H   LYS A   2     -10.733   0.859  -1.306  1.00  0.00    +0.000 HD
ATOM    164  H   LYS A   2     -11.231   3.064  -7.554  1.00  0.00    +0.000 HD
ATOM    165  H   GLN A   3     -10.742   5.365  -0.475  1.00  0.00    +0.000 HD
ATOM    166  H   GLN A   3     -14.111  10.622   0.440  1.00  0.00    +0.000 HD
ATOM    167  H   GLN A   3     -13.396  11.214   1.872  1.00  0.00    +0.000 HD
ATOM    168  H   ALA A   4     -15.098   6.241  -1.561  1.00  0.00    +0.000 HD
ATOM    169  H   VAL A   5     -13.856   8.652  -5.288  1.00  0.00    +0.000 HD
ATOM    170  H   ASN A   6     -16.851  12.231  -6.597  1.00  0.00    +0.000 HD
ATOM    171  H   ASN A   6     -15.702  14.933  -4.631  1.00  0.00    +0.000 HD
ATOM    172  H   ASN A   6     -16.090  15.552  -6.172  1.00  0.00    +0.000 HD
ATOM    173  H   ALA A   7     -18.584   9.664  -6.040  1.00  0.00    +0.000 HD
ATOM    174  H   LEU A   8     -21.880  12.906  -6.501  1.00  0.00    +0.000 HD
ATOM    175  H   LEU A   9     -23.051  11.440  -8.769  1.00  0.00    +0.000 HD
ATOM    176  H   VAL A  10     -26.917  14.067  -9.125  1.00  0.00    +0.000 HD
ATOM    177  H   PHE A  11     -26.977  15.059 -13.550  1.00  0.00    +0.000 HD
ATOM    178  H   PHE A  12     -27.745  18.362 -13.558  1.00  0.00    +0.000 HD
ATOM    179  H   GLY A  14     -26.099  18.394 -20.338  1.00  0.00    +0.000 HD
ATOM    180  H   SER A  15     -26.167  14.990 -22.923  1.00  0.00    +0.000 HD
ATOM    181  H   SER A  15     -26.048  15.505 -26.379  1.00  0.00    +0.000 HD
ATOM    182  H   SER A  16     -23.578  18.189 -25.176  1.00  0.00    +0.000 HD
ATOM    183  H   SER A  16     -22.078  18.099 -27.063  1.00  0.00    +0.000 HD
ATOM    184  H   ASP A  17     -26.155  18.099 -29.043  1.00  0.00    +0.000 HD
ATOM    185  H   ASP A  17     -29.315  16.767 -30.853  1.00  0.00    +0.000 HD
ATOM    186  H   ALA A  18     -24.032  18.447 -30.148  1.00  0.00    +0.000 HD
ATOM    187  H   ILE A  19     -20.134  19.084 -32.784  1.00  0.00    +0.000 HD
ATOM    188  H   ARG A  20     -19.278  15.452 -30.493  1.00  0.00    +0.000 HD
ATOM    189  H   ARG A  20     -14.108  14.555 -24.442  1.00  0.00    +0.000 HD
ATOM    190  H   ARG A  20     -14.922  15.210 -25.789  1.00  0.00    +0.000 HD
ATOM    191  H   ARG A  20     -12.941  11.742 -26.123  1.00  0.00    +0.000 HD
ATOM    192  H   ARG A  20     -12.974  12.569 -24.633  1.00  0.00    +0.000 HD
ATOM    193  H   ARG A  21     -18.691  14.156 -32.823  1.00  0.00    +0.000 HD
ATOM    194  H   ARG A  21     -22.177  10.456 -28.142  1.00  0.00    +0.000 HD
ATOM    195  H   ARG A  21     -21.554  10.786 -29.695  1.00  0.00    +0.000 HD
ATOM    196  H   ARG A  21     -21.077  11.211 -26.276  1.00  0.00    +0.000 HD
ATOM    197  H   ARG A  21     -19.635  12.107 -26.435  1.00  0.00    +0.000 HD
ATOM    198  H   ARG A  21     -17.961  14.080 -34.927  1.00  0.00    +0.000 HD
ATOM      1  CB  ALA A  13     -23.823  17.401 -18.971  1.00  0.00    +0.000 C 
ENDROOT
TORSDOF 0
