REMARK  Name = /var/folders/yp/yjbh3p597675h2qddgqr02y00000gn/T/tmpq_5_wsc9.pdb
REMARK     285 UNITARY VALUES FOR THE UNIT CELL AUTOMATICALLY SET
REMARK     285 BY MDANALYSIS PDBWRITER BECAUSE UNIT CELL INFORMATION
REMARK     285 WAS MISSING.
REMARK     285 PROTEIN DATA BANK CONVENTIONS REQUIRE THAT
REMARK     285 CRYST1 RECORD IS INCLUDED, BUT THE VALUES ON
REMARK     285 THIS RECORD ARE MEANINGLESS.
REMARK     285 UNITARY VALUES FOR THE UNIT CELL AUTOMATICALLY SET
REMARK     285 BY MDANALYSIS PDBWRITER BECAUSE UNIT CELL INFORMATION
REMARK     285 WAS MISSING.
REMARK     285 PROTEIN DATA BANK CONVENTIONS REQUIRE THAT
REMARK     285 CRYST1 RECORD IS INCLUDED, BUT THE VALUES ON
REMARK     285 THIS RECORD ARE MEANINGLESS.
REMARK                            x       y       z     vdW  Elec       q    Type
REMARK                         _______ _______ _______ _____ _____    ______ ____
ROOT
ATOM      1  N   MET A   1       5.399  13.904 -19.852  1.00  0.00    -0.123 NA
ATOM      2  CA  MET A   1       4.223  13.870 -18.986  1.00  0.00    +0.170 C 
ATOM      3  C   MET A   1       4.086  15.165 -18.204  1.00  0.00    +0.259 C 
ATOM      4  O   MET A   1       5.052  15.643 -17.611  1.00  0.00    -0.272 OA
ATOM      5  CB  MET A   1       4.297  12.699 -18.019  1.00  0.00    +0.040 C 
ATOM      6  CG  MET A   1       3.034  12.506 -17.197  1.00  0.00    +0.060 C 
ATOM      7  SD  MET A   1       1.696  13.616 -17.702  1.00  0.00    -0.139 S 
ATOM      8  CE  MET A   1       2.020  13.746 -19.456  1.00  0.00    +0.069 C 
ATOM      9  N   LYS A   2       2.886  15.736 -18.200  1.00  0.00    -0.197 N 
ATOM     10  CA  LYS A   2       2.704  17.124 -17.786  1.00  0.00    +0.173 C 
ATOM     11  C   LYS A   2       2.793  17.260 -16.274  1.00  0.00    +0.262 C 
ATOM     12  O   LYS A   2       2.264  16.425 -15.541  1.00  0.00    -0.271 OA
ATOM     13  CB  LYS A   2       1.365  17.661 -18.266  1.00  0.00    +0.031 C 
ATOM     14  CG  LYS A   2       1.133  19.124 -17.926  1.00  0.00    +0.009 C 
ATOM     15  CD  LYS A   2      -0.314  19.532 -18.146  1.00  0.00    +0.049 C 
ATOM     16  CE  LYS A   2      -0.448  20.978 -18.307  1.00  0.00    +0.096 C 
ATOM     17  NZ  LYS A   2      -1.562  21.667 -18.072  1.00  0.00    -0.151 NA
ATOM     18  N   LEU A   3       3.461  18.311 -15.808  1.00  0.00    -0.196 N 
ATOM     19  CA  LEU A   3       2.902  19.165 -14.765  1.00  0.00    +0.173 C 
ATOM     20  C   LEU A   3       1.817  20.066 -15.327  1.00  0.00    +0.262 C 
ATOM     21  O   LEU A   3       1.990  20.665 -16.387  1.00  0.00    -0.271 OA
ATOM     22  CB  LEU A   3       3.988  20.015 -14.125  1.00  0.00    +0.031 C 
ATOM     23  CG  LEU A   3       4.932  19.290 -13.163  1.00  0.00    +0.002 C 
ATOM     24  CD1 LEU A   3       5.335  17.938 -13.738  1.00  0.00    +0.000 C 
ATOM     25  CD2 LEU A   3       4.174  18.803 -11.933  1.00  0.00    +0.000 C 
ATOM     26  N   ALA A   4       0.696  20.165 -14.618  1.00  0.00    -0.196 N 
ATOM     27  CA  ALA A   4      -0.214  21.295 -14.787  1.00  0.00    +0.173 C 
ATOM     28  C   ALA A   4       0.424  22.587 -14.306  1.00  0.00    +0.262 C 
ATOM     29  O   ALA A   4       1.218  22.580 -13.367  1.00  0.00    -0.271 OA
ATOM     30  CB  ALA A   4      -1.513  21.058 -14.033  1.00  0.00    +0.033 C 
ATOM     31  N   VAL A   5       0.080  23.698 -14.950  1.00  0.00    -0.196 N 
ATOM     32  CA  VAL A   5      -0.695  24.748 -14.294  1.00  0.00    +0.173 C 
ATOM     33  C   VAL A   5      -2.133  24.707 -14.782  1.00  0.00    +0.262 C 
ATOM     34  O   VAL A   5      -2.389  24.808 -15.981  1.00  0.00    -0.271 OA
ATOM     35  CB  VAL A   5      -0.112  26.128 -14.551  1.00  0.00    +0.029 C 
ATOM     36  CG1 VAL A   5      -0.424  27.070 -13.390  1.00  0.00    +0.002 C 
ATOM     37  CG2 VAL A   5       1.408  26.047 -14.694  1.00  0.00    +0.002 C 
ATOM     38  N   PHE A   6      -3.075  24.559 -13.854  1.00  0.00    -0.196 N 
ATOM     39  CA  PHE A   6      -4.160  25.525 -13.713  1.00  0.00    +0.177 C 
ATOM     40  C   PHE A   6      -3.659  26.809 -13.074  1.00  0.00    +0.262 C 
ATOM     41  O   PHE A   6      -3.139  26.792 -11.960  1.00  0.00    -0.271 OA
ATOM     42  CB  PHE A   6      -5.292  24.950 -12.876  1.00  0.00    +0.057 C 
ATOM     43  CG  PHE A   6      -6.203  24.033 -13.637  1.00  0.00    -0.020 A 
ATOM     44  CD1 PHE A   6      -7.494  24.441 -13.952  1.00  0.00    -0.004 A 
ATOM     45  CE1 PHE A   6      -8.338  23.592 -14.658  1.00  0.00    -0.000 A 
ATOM     46  CD2 PHE A   6      -5.758  22.776 -14.027  1.00  0.00    -0.004 A 
ATOM     47  CE2 PHE A   6      -6.602  21.927 -14.732  1.00  0.00    -0.000 A 
ATOM     48  CZ  PHE A   6      -7.893  22.335 -15.047  1.00  0.00    -0.000 A 
ATOM     49  N   ALA A   7      -3.815  27.927 -13.781  1.00  0.00    -0.196 N 
ATOM     50  CA  ALA A   7      -4.187  29.185 -13.141  1.00  0.00    +0.173 C 
ATOM     51  C   ALA A   7      -5.603  29.121 -12.591  1.00  0.00    +0.262 C 
ATOM     52  O   ALA A   7      -5.906  29.748 -11.577  1.00  0.00    -0.271 OA
ATOM     53  CB  ALA A   7      -4.075  30.342 -14.120  1.00  0.00    +0.033 C 
ATOM     54  N   LEU A   8      -6.470  28.365 -13.258  1.00  0.00    -0.196 N 
ATOM     55  CA  LEU A   8      -7.906  28.609 -13.185  1.00  0.00    +0.173 C 
ATOM     56  C   LEU A   8      -8.440  28.289 -11.797  1.00  0.00    +0.262 C 
ATOM     57  O   LEU A   8      -9.212  29.061 -11.231  1.00  0.00    -0.271 OA
ATOM     58  CB  LEU A   8      -8.648  27.777 -14.218  1.00  0.00    +0.031 C 
ATOM     59  CG  LEU A   8      -9.033  28.497 -15.512  1.00  0.00    +0.002 C 
ATOM     60  CD1 LEU A   8     -10.513  28.862 -15.491  1.00  0.00    +0.000 C 
ATOM     61  CD2 LEU A   8      -9.050  27.520 -16.683  1.00  0.00    +0.000 C 
ATOM     62  N   ARG A   9      -8.028  27.150 -11.249  1.00  0.00    -0.196 N 
ATOM     63  CA  ARG A   9      -8.933  26.315 -10.464  1.00  0.00    +0.173 C 
ATOM     64  C   ARG A   9      -9.259  26.969  -9.132  1.00  0.00    +0.262 C 
ATOM     65  O   ARG A   9     -10.371  26.832  -8.624  1.00  0.00    -0.271 OA
ATOM     66  CB  ARG A   9      -8.328  24.942 -10.219  1.00  0.00    +0.033 C 
ATOM     67  CG  ARG A   9      -8.273  24.065 -11.460  1.00  0.00    +0.029 C 
ATOM     68  CD  ARG A   9      -7.413  22.831 -11.243  1.00  0.00    +0.129 C 
ATOM     69  NE  ARG A   9      -7.931  21.997 -10.162  1.00  0.00    -0.234 NA
ATOM     70  CZ  ARG A   9      -8.128  20.683 -10.247  1.00  0.00    +0.284 C 
ATOM     71  NH1 ARG A   9      -7.801  20.018 -11.350  1.00  0.00    -0.104 N 
ATOM     72  NH2 ARG A   9      -8.658  20.031  -9.215  1.00  0.00    -0.104 N 
ATOM     73  N   VAL A  10      -8.290  27.682  -8.564  1.00  0.00    -0.196 N 
ATOM     74  CA  VAL A  10      -7.511  27.153  -7.450  1.00  0.00    +0.173 C 
ATOM     75  C   VAL A  10      -7.809  27.949  -6.189  1.00  0.00    +0.262 C 
ATOM     76  O   VAL A  10      -7.522  29.143  -6.123  1.00  0.00    -0.271 OA
ATOM     77  CB  VAL A  10      -6.017  27.191  -7.734  1.00  0.00    +0.029 C 
ATOM     78  CG1 VAL A  10      -5.273  26.206  -6.836  1.00  0.00    +0.002 C 
ATOM     79  CG2 VAL A  10      -5.742  26.807  -9.185  1.00  0.00    +0.002 C 
ATOM     80  N   PHE A  11      -8.386  27.288  -5.189  1.00  0.00    -0.196 N 
ATOM     81  CA  PHE A  11      -8.595  27.915  -3.886  1.00  0.00    +0.177 C 
ATOM     82  C   PHE A  11      -7.320  27.883  -3.060  1.00  0.00    +0.262 C 
ATOM     83  O   PHE A  11      -6.869  28.914  -2.566  1.00  0.00    -0.271 OA
ATOM     84  CB  PHE A  11      -9.712  27.218  -3.124  1.00  0.00    +0.057 C 
ATOM     85  CG  PHE A  11     -10.708  28.159  -2.513  1.00  0.00    -0.020 A 
ATOM     86  CD1 PHE A  11     -11.367  29.087  -3.310  1.00  0.00    -0.004 A 
ATOM     87  CE1 PHE A  11     -12.290  29.958  -2.743  1.00  0.00    -0.000 A 
ATOM     88  CD2 PHE A  11     -10.970  28.103  -1.149  1.00  0.00    -0.004 A 
ATOM     89  CE2 PHE A  11     -11.893  28.974  -0.583  1.00  0.00    -0.000 A 
ATOM     90  CZ  PHE A  11     -12.554  29.902  -1.380  1.00  0.00    -0.000 A 
ATOM     91  N   PHE A  12      -6.737  26.696  -2.910  1.00  0.00    -0.196 N 
ATOM     92  CA  PHE A  12      -7.469  25.551  -2.379  1.00  0.00    +0.177 C 
ATOM     93  C   PHE A  12      -6.867  25.089  -1.062  1.00  0.00    +0.262 C 
ATOM     94  O   PHE A  12      -5.648  25.073  -0.904  1.00  0.00    -0.271 OA
ATOM     95  CB  PHE A  12      -7.467  24.399  -3.371  1.00  0.00    +0.057 C 
ATOM     96  CG  PHE A  12      -8.574  24.464  -4.379  1.00  0.00    -0.020 A 
ATOM     97  CD1 PHE A  12      -9.747  23.747  -4.171  1.00  0.00    -0.004 A 
ATOM     98  CE1 PHE A  12     -10.774  23.806  -5.105  1.00  0.00    -0.000 A 
ATOM     99  CD2 PHE A  12      -8.428  25.240  -5.524  1.00  0.00    -0.004 A 
ATOM    100  CE2 PHE A  12      -9.456  25.300  -6.458  1.00  0.00    -0.000 A 
ATOM    101  CZ  PHE A  12     -10.629  24.584  -6.249  1.00  0.00    -0.000 A 
ATOM    102  N   ALA A  13      -7.723  24.712  -0.115  1.00  0.00    -0.196 N 
ATOM    103  CA  ALA A  13      -7.411  23.619   0.799  1.00  0.00    +0.173 C 
ATOM    104  C   ALA A  13      -8.368  22.455   0.605  1.00  0.00    +0.262 C 
ATOM    105  O   ALA A  13      -9.421  22.608  -0.013  1.00  0.00    -0.271 OA
ATOM    106  CB  ALA A  13      -7.470  24.090   2.243  1.00  0.00    +0.033 C 
ATOM    107  N   GLU A  14      -8.006  21.288   1.134  1.00  0.00    -0.196 N 
ATOM    108  CA  GLU A  14      -8.764  20.068   0.875  1.00  0.00    +0.173 C 
ATOM    109  C   GLU A  14     -10.161  20.153   1.468  1.00  0.00    +0.262 C 
ATOM    110  O   GLU A  14     -10.350  20.720   2.542  1.00  0.00    -0.271 OA
ATOM    111  CB  GLU A  14      -8.046  18.854   1.442  1.00  0.00    +0.043 C 
ATOM    112  CG  GLU A  14      -8.860  17.573   1.376  1.00  0.00    +0.116 C 
ATOM    113  CD  GLU A  14      -8.181  16.394   2.056  1.00  0.00    +0.365 C 
ATOM    114  OE1 GLU A  14      -7.026  16.074   1.704  1.00  0.00    -0.246 OA
ATOM    115  OE2 GLU A  14      -8.814  15.785   2.947  1.00  0.00    -0.246 OA
ATOM    116  N   SER A  15     -11.141  19.589   0.767  1.00  0.00    -0.194 N 
ATOM    117  CA  SER A  15     -11.955  18.515   1.328  1.00  0.00    +0.205 C 
ATOM    118  C   SER A  15     -11.311  17.158   1.100  1.00  0.00    +0.264 C 
ATOM    119  O   SER A  15     -10.479  17.003   0.207  1.00  0.00    -0.271 OA
ATOM    120  CB  SER A  15     -13.349  18.525   0.720  1.00  0.00    +0.213 C 
ATOM    121  OG  SER A  15     -13.301  18.172  -0.651  1.00  0.00    -0.218 OA
ATOM    122  N   SER A  16     -11.693  16.172   1.907  1.00  0.00    -0.194 N 
ATOM    123  CA  SER A  16     -11.980  14.836   1.393  1.00  0.00    +0.205 C 
ATOM    124  C   SER A  16     -13.149  14.859   0.422  1.00  0.00    +0.264 C 
ATOM    125  O   SER A  16     -14.062  15.670   0.562  1.00  0.00    -0.271 OA
ATOM    126  CB  SER A  16     -12.287  13.878   2.533  1.00  0.00    +0.213 C 
ATOM    127  OG  SER A  16     -13.609  14.070   3.008  1.00  0.00    -0.218 OA
ATOM    128  N   ASP A  17     -13.122  13.966  -0.564  1.00  0.00    -0.196 N 
ATOM    129  CA  ASP A  17     -14.348  13.354  -1.068  1.00  0.00    +0.184 C 
ATOM    130  C   ASP A  17     -14.777  12.191  -0.189  1.00  0.00    +0.262 C 
ATOM    131  O   ASP A  17     -15.880  11.668  -0.339  1.00  0.00    -0.271 OA
ATOM    132  CB  ASP A  17     -14.163  12.867  -2.497  1.00  0.00    +0.145 C 
ATOM    133  CG  ASP A  17     -13.163  11.729  -2.613  1.00  0.00    +0.367 C 
ATOM    134  OD1 ASP A  17     -12.340  11.543  -1.691  1.00  0.00    -0.246 OA
ATOM    135  OD2 ASP A  17     -13.200  11.012  -3.636  1.00  0.00    -0.246 OA
ATOM    136  N   ALA A  18     -13.906  11.785   0.731  1.00  0.00    -0.196 N 
ATOM    137  CA  ALA A  18     -14.114  10.550   1.482  1.00  0.00    +0.173 C 
ATOM    138  C   ALA A  18     -14.102  10.810   2.979  1.00  0.00    +0.262 C 
ATOM    139  O   ALA A  18     -13.065  11.154   3.545  1.00  0.00    -0.271 OA
ATOM    140  CB  ALA A  18     -13.047   9.523   1.136  1.00  0.00    +0.033 C 
ATOM    141  N   ILE A  19     -15.256  10.646   3.622  1.00  0.00    -0.196 N 
ATOM    142  CA  ILE A  19     -15.303  10.513   5.075  1.00  0.00    +0.173 C 
ATOM    143  C   ILE A  19     -15.792   9.123   5.445  1.00  0.00    +0.262 C 
ATOM    144  O   ILE A  19     -16.698   8.588   4.808  1.00  0.00    -0.271 OA
ATOM    145  CB  ILE A  19     -16.208  11.555   5.711  1.00  0.00    +0.029 C 
ATOM    146  CG1 ILE A  19     -15.975  12.928   5.084  1.00  0.00    +0.002 C 
ATOM    147  CG2 ILE A  19     -15.954  11.636   7.214  1.00  0.00    +0.002 C 
ATOM    148  CD1 ILE A  19     -16.744  14.053   5.757  1.00  0.00    +0.000 C 
ATOM    149  N   ARG A  20     -15.193   8.535   6.477  1.00  0.00    -0.196 N 
ATOM    150  CA  ARG A  20     -15.870   7.508   7.265  1.00  0.00    +0.173 C 
ATOM    151  C   ARG A  20     -16.921   8.124   8.173  1.00  0.00    +0.262 C 
ATOM    152  O   ARG A  20     -17.976   7.533   8.398  1.00  0.00    -0.271 OA
ATOM    153  CB  ARG A  20     -14.874   6.722   8.100  1.00  0.00    +0.033 C 
ATOM    154  CG  ARG A  20     -15.502   5.604   8.916  1.00  0.00    +0.026 C 
ATOM    155  CD  ARG A  20     -14.478   4.894   9.787  1.00  0.00    +0.115 C 
ATOM    156  NE  ARG A  20     -14.811   4.993  11.204  1.00  0.00    -0.204 N 
ATOM    157  CZ  ARG A  20     -14.002   5.473  12.142  1.00  0.00    +0.259 C 
ATOM    158  NH1 ARG A  20     -14.245   6.652  12.708  1.00  0.00    -0.107 N 
ATOM    159  NH2 ARG A  20     -12.938   4.768  12.520  1.00  0.00    -0.110 NA
ATOM    160  N   ARG A  21     -16.635   9.312   8.698  1.00  0.00    -0.194 N 
ATOM    161  CA  ARG A  21     -17.054   9.668  10.050  1.00  0.00    +0.198 C 
ATOM    162  C   ARG A  21     -18.315  10.517  10.023  1.00  0.00    +0.384 C 
ATOM    163  O   ARG A  21     -19.017  10.625  11.028  1.00  0.00    -0.244 OA
ATOM    164  CB  ARG A  21     -15.953  10.417  10.780  1.00  0.00    +0.035 C 
ATOM    165  CG  ARG A  21     -14.767   9.546  11.164  1.00  0.00    +0.026 C 
ATOM    166  CD  ARG A  21     -15.161   8.460  12.154  1.00  0.00    +0.117 C 
ATOM    167  NE  ARG A  21     -13.994   7.750  12.666  1.00  0.00    -0.184 N 
ATOM    168  CZ  ARG A  21     -13.624   7.722  13.943  1.00  0.00    +0.275 C 
ATOM    169  NH1 ARG A  21     -12.349   7.890  14.284  1.00  0.00    -0.107 NA
ATOM    170  NH2 ARG A  21     -14.537   7.523  14.889  1.00  0.00    -0.107 N 
ATOM    171  OXT ARG A  21     -18.649  11.108   8.997  1.00  0.00    -0.244 OA
ATOM    172  H   MET A   1       5.469  13.026 -20.365  1.00  0.00    +0.000 HD
ATOM    173  H   MET A   1       6.236  14.034 -19.283  1.00  0.00    +0.000 HD
ATOM    174  H   LYS A   2       2.102  15.211 -18.482  1.00  0.00    +0.000 HD
ATOM    175  H   LYS A   2      -2.374  21.201 -17.767  1.00  0.00    +0.000 HD
ATOM    176  H   LEU A   3       4.350  18.517 -16.174  1.00  0.00    +0.000 HD
ATOM    177  H   ALA A   4       0.475  19.461 -13.967  1.00  0.00    +0.000 HD
ATOM    178  H   VAL A   5       0.354  23.816 -15.888  1.00  0.00    +0.000 HD
ATOM    179  H   PHE A   6      -3.038  23.781 -13.251  1.00  0.00    +0.000 HD
ATOM    180  H   ALA A   7      -3.677  27.904 -14.756  1.00  0.00    +0.000 HD
ATOM    181  H   LEU A   8      -6.135  27.625 -13.814  1.00  0.00    +0.000 HD
ATOM    182  H   ARG A   9      -7.094  26.864 -11.375  1.00  0.00    +0.000 HD
ATOM    183  H   ARG A   9      -7.951  19.046 -11.402  1.00  0.00    +0.000 HD
ATOM    184  H   ARG A   9      -7.409  20.498 -12.115  1.00  0.00    +0.000 HD
ATOM    185  H   ARG A   9      -8.807  19.060  -9.271  1.00  0.00    +0.000 HD
ATOM    186  H   ARG A   9      -8.902  20.520  -8.397  1.00  0.00    +0.000 HD
ATOM    187  H   VAL A  10      -8.094  28.586  -8.903  1.00  0.00    +0.000 HD
ATOM    188  H   PHE A  11      -8.677  26.358  -5.329  1.00  0.00    +0.000 HD
ATOM    189  H   PHE A  12      -5.791  26.589  -3.161  1.00  0.00    +0.000 HD
ATOM    190  H   ALA A  13      -8.585  25.181  -0.029  1.00  0.00    +0.000 HD
ATOM    191  H   GLU A  14      -7.209  21.248   1.712  1.00  0.00    +0.000 HD
ATOM    192  H   GLU A  14      -9.679  16.060   3.179  1.00  0.00    +0.000 HD
ATOM    193  H   SER A  15     -11.320  19.902  -0.149  1.00  0.00    +0.000 HD
ATOM    194  H   SER A  15     -12.755  18.813  -1.131  1.00  0.00    +0.000 HD
ATOM    195  H   SER A  16     -11.784  16.347   2.871  1.00  0.00    +0.000 HD
ATOM    196  H   SER A  16     -13.705  14.977   3.338  1.00  0.00    +0.000 HD
ATOM    197  H   ASP A  17     -12.258  13.714  -0.961  1.00  0.00    +0.000 HD
ATOM    198  H   ASP A  17     -13.833  11.184  -4.305  1.00  0.00    +0.000 HD
ATOM    199  H   ALA A  18     -13.105  12.329   0.910  1.00  0.00    +0.000 HD
ATOM    200  H   ILE A  19     -16.094  10.614   3.107  1.00  0.00    +0.000 HD
ATOM    201  H   ARG A  20     -14.274   8.797   6.714  1.00  0.00    +0.000 HD
ATOM    202  H   ARG A  20     -15.701   4.680  11.486  1.00  0.00    +0.000 HD
ATOM    203  H   ARG A  20     -14.888   6.513  13.441  1.00  0.00    +0.000 HD
ATOM    204  H   ARG A  20     -12.754   3.895  12.104  1.00  0.00    +0.000 HD
ATOM    205  H   ARG A  21     -16.129   9.965   8.164  1.00  0.00    +0.000 HD
ATOM    206  H   ARG A  21     -11.669   8.038  13.588  1.00  0.00    +0.000 HD
ATOM    207  H   ARG A  21     -14.268   7.502  15.836  1.00  0.00    +0.000 HD
ATOM    208  H   ARG A  21     -15.483   7.398  14.642  1.00  0.00    +0.000 HD
ATOM    209  H   ARG A  21     -18.125  11.036   8.224  1.00  0.00    +0.000 HD
ENDROOT
TORSDOF 0
