REMARK  Name = /var/folders/yp/yjbh3p597675h2qddgqr02y00000gn/T/tmp024bp4f2.pdb
REMARK     285 UNITARY VALUES FOR THE UNIT CELL AUTOMATICALLY SET
REMARK     285 BY MDANALYSIS PDBWRITER BECAUSE UNIT CELL INFORMATION
REMARK     285 WAS MISSING.
REMARK     285 PROTEIN DATA BANK CONVENTIONS REQUIRE THAT
REMARK     285 CRYST1 RECORD IS INCLUDED, BUT THE VALUES ON
REMARK     285 THIS RECORD ARE MEANINGLESS.
REMARK     285 UNITARY VALUES FOR THE UNIT CELL AUTOMATICALLY SET
REMARK     285 BY MDANALYSIS PDBWRITER BECAUSE UNIT CELL INFORMATION
REMARK     285 WAS MISSING.
REMARK     285 PROTEIN DATA BANK CONVENTIONS REQUIRE THAT
REMARK     285 CRYST1 RECORD IS INCLUDED, BUT THE VALUES ON
REMARK     285 THIS RECORD ARE MEANINGLESS.
REMARK                            x       y       z     vdW  Elec       q    Type
REMARK                         _______ _______ _______ _____ _____    ______ ____
ROOT
ATOM      1  N   MET A   1      -7.497 -33.519  13.366  1.00  0.00    -0.123 NA
ATOM      2  CA  MET A   1      -8.881 -33.101  13.568  1.00  0.00    +0.170 C 
ATOM      3  C   MET A   1      -8.973 -32.019  14.632  1.00  0.00    +0.259 C 
ATOM      4  O   MET A   1      -8.285 -32.085  15.651  1.00  0.00    -0.272 OA
ATOM      5  CB  MET A   1      -9.750 -34.282  13.971  1.00  0.00    +0.040 C 
ATOM      6  CG  MET A   1     -11.241 -34.016  13.838  1.00  0.00    +0.060 C 
ATOM      7  SD  MET A   1     -12.253 -35.380  14.466  1.00  0.00    -0.139 S 
ATOM      8  CE  MET A   1     -13.859 -34.594  14.530  1.00  0.00    +0.069 C 
ATOM      9  N   LYS A   2      -9.820 -31.022  14.397  1.00  0.00    -0.197 N 
ATOM     10  CA  LYS A   2     -10.225 -30.103  15.457  1.00  0.00    +0.173 C 
ATOM     11  C   LYS A   2     -11.071 -30.812  16.503  1.00  0.00    +0.262 C 
ATOM     12  O   LYS A   2     -11.013 -30.473  17.684  1.00  0.00    -0.271 OA
ATOM     13  CB  LYS A   2     -11.005 -28.929  14.886  1.00  0.00    +0.031 C 
ATOM     14  CG  LYS A   2     -10.135 -27.898  14.186  1.00  0.00    +0.009 C 
ATOM     15  CD  LYS A   2     -10.966 -26.917  13.374  1.00  0.00    +0.049 C 
ATOM     16  CE  LYS A   2     -12.027 -27.591  12.632  1.00  0.00    +0.096 C 
ATOM     17  NZ  LYS A   2     -13.063 -26.981  12.065  1.00  0.00    -0.151 NA
ATOM     18  N   LEU A   3     -11.855 -31.794  16.070  1.00  0.00    -0.196 N 
ATOM     19  CA  LEU A   3     -13.230 -31.933  16.543  1.00  0.00    +0.173 C 
ATOM     20  C   LEU A   3     -13.276 -32.707  17.851  1.00  0.00    +0.262 C 
ATOM     21  O   LEU A   3     -12.553 -33.687  18.022  1.00  0.00    -0.271 OA
ATOM     22  CB  LEU A   3     -14.088 -32.637  15.506  1.00  0.00    +0.031 C 
ATOM     23  CG  LEU A   3     -14.230 -31.929  14.158  1.00  0.00    +0.002 C 
ATOM     24  CD1 LEU A   3     -15.694 -31.875  13.739  1.00  0.00    +0.000 C 
ATOM     25  CD2 LEU A   3     -13.699 -32.811  13.031  1.00  0.00    +0.000 C 
ATOM     26  N   ALA A   4     -14.127 -32.269  18.774  1.00  0.00    -0.196 N 
ATOM     27  CA  ALA A   4     -15.124 -33.152  19.371  1.00  0.00    +0.173 C 
ATOM     28  C   ALA A   4     -16.332 -33.306  18.461  1.00  0.00    +0.262 C 
ATOM     29  O   ALA A   4     -16.764 -32.345  17.827  1.00  0.00    -0.271 OA
ATOM     30  CB  ALA A   4     -15.572 -32.624  20.724  1.00  0.00    +0.033 C 
ATOM     31  N   VAL A   5     -16.879 -34.517  18.397  1.00  0.00    -0.196 N 
ATOM     32  CA  VAL A   5     -18.309 -34.717  18.609  1.00  0.00    +0.173 C 
ATOM     33  C   VAL A   5     -18.536 -35.492  19.895  1.00  0.00    +0.261 C 
ATOM     34  O   VAL A   5     -17.917 -36.533  20.113  1.00  0.00    -0.271 OA
ATOM     35  CB  VAL A   5     -18.956 -35.457  17.449  1.00  0.00    +0.029 C 
ATOM     36  CG1 VAL A   5     -20.356 -35.935  17.828  1.00  0.00    +0.002 C 
ATOM     37  CG2 VAL A   5     -19.085 -34.538  16.236  1.00  0.00    +0.002 C 
ATOM     38  N   PHE A   6     -19.422 -34.988  20.748  1.00  0.00    -0.201 N 
ATOM     39  CA  PHE A   6     -20.295 -35.852  21.538  1.00  0.00    +0.144 C 
ATOM     40  C   PHE A   6     -21.525 -36.248  20.740  1.00  0.00    +0.210 C 
ATOM     41  O   PHE A   6     -22.195 -35.396  20.160  1.00  0.00    -0.341 OA
ATOM     42  CB  PHE A   6     -20.723 -35.161  22.822  1.00  0.00    +0.052 C 
ATOM     43  CG  PHE A   6     -19.649 -35.104  23.869  1.00  0.00    -0.020 A 
ATOM     44  CD1 PHE A   6     -18.415 -34.538  23.568  1.00  0.00    -0.004 A 
ATOM     45  CE1 PHE A   6     -17.420 -34.486  24.536  1.00  0.00    -0.000 A 
ATOM     46  CD2 PHE A   6     -19.888 -35.617  25.138  1.00  0.00    -0.004 A 
ATOM     47  CE2 PHE A   6     -18.892 -35.563  26.107  1.00  0.00    -0.000 A 
ATOM     48  CZ  PHE A   6     -17.658 -34.998  25.806  1.00  0.00    -0.000 A 
ATOM     49  N   ALA A   7     -21.826 -37.544  20.712  1.00  0.00    -0.183 NA
ATOM     50  CA  ALA A   7     -23.212 -38.003  20.704  1.00  0.00    +0.153 C 
ATOM     51  C   ALA A   7     -23.752 -38.135  22.117  1.00  0.00    +0.258 C 
ATOM     52  O   ALA A   7     -24.965 -38.165  22.322  1.00  0.00    -0.272 OA
ATOM     53  CB  ALA A   7     -23.332 -39.339  19.987  1.00  0.00    +0.029 C 
ATOM     54  N   LEU A   8     -22.853 -38.215  23.095  1.00  0.00    -0.197 N 
ATOM     55  CA  LEU A   8     -23.258 -38.292  24.496  1.00  0.00    +0.173 C 
ATOM     56  C   LEU A   8     -23.663 -36.923  25.018  1.00  0.00    +0.262 C 
ATOM     57  O   LEU A   8     -24.573 -36.811  25.840  1.00  0.00    -0.271 OA
ATOM     58  CB  LEU A   8     -22.133 -38.849  25.351  1.00  0.00    +0.031 C 
ATOM     59  CG  LEU A   8     -22.079 -40.372  25.484  1.00  0.00    +0.002 C 
ATOM     60  CD1 LEU A   8     -21.433 -40.764  26.808  1.00  0.00    +0.000 C 
ATOM     61  CD2 LEU A   8     -21.038 -40.958  24.535  1.00  0.00    +0.000 C 
ATOM     62  N   ARG A   9     -22.991 -35.879  24.543  1.00  0.00    -0.196 N 
ATOM     63  CA  ARG A   9     -23.577 -34.543  24.518  1.00  0.00    +0.173 C 
ATOM     64  C   ARG A   9     -24.443 -34.351  23.284  1.00  0.00    +0.262 C 
ATOM     65  O   ARG A   9     -25.322 -33.493  23.263  1.00  0.00    -0.271 OA
ATOM     66  CB  ARG A   9     -22.496 -33.475  24.551  1.00  0.00    +0.033 C 
ATOM     67  CG  ARG A   9     -21.722 -33.345  23.249  1.00  0.00    +0.029 C 
ATOM     68  CD  ARG A   9     -20.621 -32.302  23.348  1.00  0.00    +0.129 C 
ATOM     69  NE  ARG A   9     -20.919 -31.301  24.368  1.00  0.00    -0.234 NA
ATOM     70  CZ  ARG A   9     -20.005 -30.605  25.040  1.00  0.00    +0.284 C 
ATOM     71  NH1 ARG A   9     -18.726 -30.639  24.675  1.00  0.00    -0.104 N 
ATOM     72  NH2 ARG A   9     -20.374 -29.870  26.084  1.00  0.00    -0.104 N 
ATOM     73  N   VAL A  10     -24.194 -35.152  22.250  1.00  0.00    -0.194 N 
ATOM     74  CA  VAL A  10     -24.396 -34.705  20.876  1.00  0.00    +0.197 C 
ATOM     75  C   VAL A  10     -25.464 -35.557  20.210  1.00  0.00    +0.264 C 
ATOM     76  O   VAL A  10     -25.430 -36.783  20.297  1.00  0.00    -0.271 OA
ATOM     77  CB  VAL A  10     -23.114 -34.773  20.062  1.00  0.00    +0.121 C 
ATOM     78  CG1 VAL A  10     -23.189 -33.842  18.855  1.00  0.00    +0.032 C 
ATOM     79  CG2 VAL A  10     -21.920 -34.346  20.914  1.00  0.00    +0.032 C 
ATOM     80  N   PHE A  11     -26.416 -34.906  19.546  1.00  0.00    -0.196 N 
ATOM     81  CA  PHE A  11     -27.243 -35.581  18.548  1.00  0.00    +0.177 C 
ATOM     82  C   PHE A  11     -26.803 -35.210  17.143  1.00  0.00    +0.262 C 
ATOM     83  O   PHE A  11     -26.314 -34.104  16.912  1.00  0.00    -0.271 OA
ATOM     84  CB  PHE A  11     -28.709 -35.227  18.731  1.00  0.00    +0.057 C 
ATOM     85  CG  PHE A  11     -29.473 -36.217  19.561  1.00  0.00    -0.020 A 
ATOM     86  CD1 PHE A  11     -28.802 -37.034  20.462  1.00  0.00    -0.004 A 
ATOM     87  CE1 PHE A  11     -29.510 -37.951  21.231  1.00  0.00    -0.000 A 
ATOM     88  CD2 PHE A  11     -30.855 -36.316  19.428  1.00  0.00    -0.004 A 
ATOM     89  CE2 PHE A  11     -31.563 -37.232  20.195  1.00  0.00    -0.000 A 
ATOM     90  CZ  PHE A  11     -30.890 -38.050  21.096  1.00  0.00    -0.000 A 
ATOM     91  N   PHE A  12     -26.975 -36.132  16.200  1.00  0.00    -0.196 N 
ATOM     92  CA  PHE A  12     -26.795 -35.817  14.786  1.00  0.00    +0.177 C 
ATOM     93  C   PHE A  12     -28.064 -35.214  14.204  1.00  0.00    +0.262 C 
ATOM     94  O   PHE A  12     -29.122 -35.840  14.231  1.00  0.00    -0.271 OA
ATOM     95  CB  PHE A  12     -26.416 -37.059  13.996  1.00  0.00    +0.057 C 
ATOM     96  CG  PHE A  12     -25.005 -37.515  14.225  1.00  0.00    -0.020 A 
ATOM     97  CD1 PHE A  12     -23.949 -36.830  13.634  1.00  0.00    -0.004 A 
ATOM     98  CE1 PHE A  12     -22.641 -37.253  13.846  1.00  0.00    -0.000 A 
ATOM     99  CD2 PHE A  12     -24.753 -38.622  15.027  1.00  0.00    -0.004 A 
ATOM    100  CE2 PHE A  12     -23.446 -39.044  15.240  1.00  0.00    -0.000 A 
ATOM    101  CZ  PHE A  12     -22.390 -38.360  14.649  1.00  0.00    -0.000 A 
ATOM    102  N   ALA A  13     -27.959 -33.998  13.676  1.00  0.00    -0.196 N 
ATOM    103  CA  ALA A  13     -28.445 -33.708  12.330  1.00  0.00    +0.173 C 
ATOM    104  C   ALA A  13     -27.581 -34.384  11.279  1.00  0.00    +0.262 C 
ATOM    105  O   ALA A  13     -26.411 -34.674  11.524  1.00  0.00    -0.271 OA
ATOM    106  CB  ALA A  13     -28.473 -32.210  12.077  1.00  0.00    +0.033 C 
ATOM    107  N   GLU A  14     -28.155 -34.636  10.107  1.00  0.00    -0.196 N 
ATOM    108  CA  GLU A  14     -27.401 -35.216   8.998  1.00  0.00    +0.173 C 
ATOM    109  C   GLU A  14     -26.265 -34.302   8.569  1.00  0.00    +0.262 C 
ATOM    110  O   GLU A  14     -26.395 -33.080   8.616  1.00  0.00    -0.271 OA
ATOM    111  CB  GLU A  14     -28.308 -35.491   7.811  1.00  0.00    +0.043 C 
ATOM    112  CG  GLU A  14     -27.585 -36.068   6.606  1.00  0.00    +0.116 C 
ATOM    113  CD  GLU A  14     -28.505 -36.346   5.427  1.00  0.00    +0.365 C 
ATOM    114  OE1 GLU A  14     -28.507 -35.554   4.460  1.00  0.00    -0.246 OA
ATOM    115  OE2 GLU A  14     -29.228 -37.364   5.473  1.00  0.00    -0.246 OA
ATOM    116  N   SER A  15     -25.149 -34.893   8.151  1.00  0.00    -0.194 N 
ATOM    117  CA  SER A  15     -24.385 -34.366   7.025  1.00  0.00    +0.205 C 
ATOM    118  C   SER A  15     -25.050 -34.703   5.700  1.00  0.00    +0.264 C 
ATOM    119  O   SER A  15     -25.789 -35.682   5.605  1.00  0.00    -0.271 OA
ATOM    120  CB  SER A  15     -22.967 -34.913   7.035  1.00  0.00    +0.213 C 
ATOM    121  OG  SER A  15     -22.953 -36.280   6.664  1.00  0.00    -0.218 OA
ATOM    122  N   SER A  16     -24.790 -33.894   4.679  1.00  0.00    -0.194 N 
ATOM    123  CA  SER A  16     -25.032 -34.306   3.300  1.00  0.00    +0.205 C 
ATOM    124  C   SER A  16     -24.302 -35.599   2.974  1.00  0.00    +0.264 C 
ATOM    125  O   SER A  16     -23.186 -35.820   3.442  1.00  0.00    -0.271 OA
ATOM    126  CB  SER A  16     -24.599 -33.221   2.329  1.00  0.00    +0.213 C 
ATOM    127  OG  SER A  16     -23.189 -33.211   2.184  1.00  0.00    -0.218 OA
ATOM    128  N   ASP A  17     -24.930 -36.453   2.170  1.00  0.00    -0.196 N 
ATOM    129  CA  ASP A  17     -24.397 -36.789   0.853  1.00  0.00    +0.184 C 
ATOM    130  C   ASP A  17     -24.661 -35.672  -0.143  1.00  0.00    +0.262 C 
ATOM    131  O   ASP A  17     -23.829 -35.393  -1.003  1.00  0.00    -0.271 OA
ATOM    132  CB  ASP A  17     -25.005 -38.083   0.336  1.00  0.00    +0.145 C 
ATOM    133  CG  ASP A  17     -24.760 -39.265   1.260  1.00  0.00    +0.367 C 
ATOM    134  OD1 ASP A  17     -23.688 -39.330   1.899  1.00  0.00    -0.246 OA
ATOM    135  OD2 ASP A  17     -25.649 -40.140   1.348  1.00  0.00    -0.246 OA
ATOM    136  N   ALA A  18     -25.822 -35.031  -0.026  1.00  0.00    -0.196 N 
ATOM    137  CA  ALA A  18     -26.864 -35.156  -1.041  1.00  0.00    +0.173 C 
ATOM    138  C   ALA A  18     -26.935 -33.909  -1.907  1.00  0.00    +0.262 C 
ATOM    139  O   ALA A  18     -27.569 -32.925  -1.534  1.00  0.00    -0.271 OA
ATOM    140  CB  ALA A  18     -28.218 -35.403  -0.396  1.00  0.00    +0.033 C 
ATOM    141  N   ILE A  19     -26.283 -33.950  -3.066  1.00  0.00    -0.196 N 
ATOM    142  CA  ILE A  19     -26.703 -33.138  -4.203  1.00  0.00    +0.173 C 
ATOM    143  C   ILE A  19     -27.240 -34.038  -5.305  1.00  0.00    +0.262 C 
ATOM    144  O   ILE A  19     -26.743 -35.143  -5.507  1.00  0.00    -0.271 OA
ATOM    145  CB  ILE A  19     -25.564 -32.293  -4.751  1.00  0.00    +0.029 C 
ATOM    146  CG1 ILE A  19     -24.837 -31.569  -3.620  1.00  0.00    +0.002 C 
ATOM    147  CG2 ILE A  19     -26.097 -31.266  -5.749  1.00  0.00    +0.002 C 
ATOM    148  CD1 ILE A  19     -23.835 -30.530  -4.094  1.00  0.00    +0.000 C 
ATOM    149  N   ARG A  20     -28.259 -33.563  -6.018  1.00  0.00    -0.195 N 
ATOM    150  CA  ARG A  20     -28.600 -34.126  -7.321  1.00  0.00    +0.191 C 
ATOM    151  C   ARG A  20     -27.485 -33.891  -8.326  1.00  0.00    +0.263 C 
ATOM    152  O   ARG A  20     -27.151 -34.781  -9.107  1.00  0.00    -0.271 OA
ATOM    153  CB  ARG A  20     -29.893 -33.523  -7.849  1.00  0.00    +0.110 C 
ATOM    154  CG  ARG A  20     -30.450 -34.239  -9.071  1.00  0.00    +0.067 C 
ATOM    155  CD  ARG A  20     -31.404 -33.355  -9.856  1.00  0.00    +0.185 C 
ATOM    156  NE  ARG A  20     -31.916 -34.033 -11.042  1.00  0.00    -0.215 NA
ATOM    157  CZ  ARG A  20     -32.599 -33.443 -12.019  1.00  0.00    +0.286 C 
ATOM    158  NH1 ARG A  20     -32.820 -32.132 -11.995  1.00  0.00    -0.104 N 
ATOM    159  NH2 ARG A  20     -33.065 -34.174 -13.029  1.00  0.00    -0.104 N 
ATOM    160  N   ARG A  21     -26.906 -32.694  -8.305  1.00  0.00    -0.194 N 
ATOM    161  CA  ARG A  21     -26.058 -32.243  -9.405  1.00  0.00    +0.198 C 
ATOM    162  C   ARG A  21     -24.613 -32.660  -9.185  1.00  0.00    +0.384 C 
ATOM    163  O   ARG A  21     -24.067 -32.473  -8.098  1.00  0.00    -0.244 OA
ATOM    164  CB  ARG A  21     -26.132 -30.732  -9.560  1.00  0.00    +0.035 C 
ATOM    165  CG  ARG A  21     -27.299 -30.258 -10.410  1.00  0.00    +0.026 C 
ATOM    166  CD  ARG A  21     -28.593 -30.206  -9.613  1.00  0.00    +0.115 C 
ATOM    167  NE  ARG A  21     -28.890 -31.491  -8.984  1.00  0.00    -0.206 N 
ATOM    168  CZ  ARG A  21     -30.080 -31.845  -8.510  1.00  0.00    +0.226 C 
ATOM    169  NH1 ARG A  21     -30.548 -31.312  -7.384  1.00  0.00    -0.113 NA
ATOM    170  NH2 ARG A  21     -30.810 -32.741  -9.167  1.00  0.00    -0.261 N 
ATOM    171  OXT ARG A  21     -23.970 -33.189 -10.091  1.00  0.00    -0.244 OA
ATOM    172  H   MET A   1      -7.463 -34.244  12.649  1.00  0.00    +0.000 HD
ATOM    173  H   MET A   1      -7.122 -33.887  14.240  1.00  0.00    +0.000 HD
ATOM    174  H   LYS A   2     -10.183 -30.901  13.490  1.00  0.00    +0.000 HD
ATOM    175  H   LYS A   2     -13.153 -26.003  12.129  1.00  0.00    +0.000 HD
ATOM    176  H   LEU A   3     -11.502 -32.441  15.417  1.00  0.00    +0.000 HD
ATOM    177  H   ALA A   4     -14.084 -31.328  19.060  1.00  0.00    +0.000 HD
ATOM    178  H   VAL A   5     -16.307 -35.294  18.203  1.00  0.00    +0.000 HD
ATOM    179  H   PHE A   6     -19.492 -34.011  20.849  1.00  0.00    +0.000 HD
ATOM    180  H   ALA A   7     -21.389 -37.959  21.535  1.00  0.00    +0.000 HD
ATOM    181  H   LEU A   8     -21.895 -38.222  22.869  1.00  0.00    +0.000 HD
ATOM    182  H   ARG A   9     -22.077 -36.011  24.199  1.00  0.00    +0.000 HD
ATOM    183  H   ARG A   9     -18.449 -31.182  23.903  1.00  0.00    +0.000 HD
ATOM    184  H   ARG A   9     -18.057 -30.121  25.178  1.00  0.00    +0.000 HD
ATOM    185  H   ARG A   9     -19.701 -29.354  26.584  1.00  0.00    +0.000 HD
ATOM    186  H   ARG A   9     -21.319 -29.842  26.357  1.00  0.00    +0.000 HD
ATOM    187  H   VAL A  10     -23.865 -36.066  22.416  1.00  0.00    +0.000 HD
ATOM    188  H   PHE A  11     -26.566 -33.950  19.731  1.00  0.00    +0.000 HD
ATOM    189  H   PHE A  12     -27.228 -37.048  16.461  1.00  0.00    +0.000 HD
ATOM    190  H   ALA A  13     -27.544 -33.277  14.204  1.00  0.00    +0.000 HD
ATOM    191  H   GLU A  14     -29.109 -34.427   9.983  1.00  0.00    +0.000 HD
ATOM    192  H   GLU A  14     -29.192 -37.930   6.219  1.00  0.00    +0.000 HD
ATOM    193  H   SER A  15     -24.832 -35.704   8.611  1.00  0.00    +0.000 HD
ATOM    194  H   SER A  15     -23.309 -36.375   5.767  1.00  0.00    +0.000 HD
ATOM    195  H   SER A  16     -24.426 -32.996   4.855  1.00  0.00    +0.000 HD
ATOM    196  H   SER A  16     -22.895 -34.067   1.836  1.00  0.00    +0.000 HD
ATOM    197  H   ASP A  17     -25.772 -36.867   2.470  1.00  0.00    +0.000 HD
ATOM    198  H   ASP A  17     -26.440 -40.055   0.853  1.00  0.00    +0.000 HD
ATOM    199  H   ALA A  18     -25.981 -34.461   0.762  1.00  0.00    +0.000 HD
ATOM    200  H   ILE A  19     -25.502 -34.541  -3.159  1.00  0.00    +0.000 HD
ATOM    201  H   ARG A  20     -28.792 -32.817  -5.661  1.00  0.00    +0.000 HD
ATOM    202  H   ARG A  20     -33.326 -31.705 -12.722  1.00  0.00    +0.000 HD
ATOM    203  H   ARG A  20     -32.477 -31.590 -11.248  1.00  0.00    +0.000 HD
ATOM    204  H   ARG A  20     -32.902 -35.144 -13.050  1.00  0.00    +0.000 HD
ATOM    205  H   ARG A  20     -33.572 -33.744 -13.756  1.00  0.00    +0.000 HD
ATOM    206  H   ARG A  21     -27.052 -32.101  -7.533  1.00  0.00    +0.000 HD
ATOM    207  H   ARG A  21     -24.543 -32.071  -7.397  1.00  0.00    +0.000 HD
ATOM    208  H   ARG A  21     -28.156 -32.141  -8.906  1.00  0.00    +0.000 HD
ATOM    209  H   ARG A  21     -30.011 -30.647  -6.894  1.00  0.00    +0.000 HD
ENDROOT
TORSDOF 0
