REMARK  Name = /var/folders/yp/yjbh3p597675h2qddgqr02y00000gn/T/tmp1iywa0xi.pdb
REMARK     285 UNITARY VALUES FOR THE UNIT CELL AUTOMATICALLY SET
REMARK     285 BY MDANALYSIS PDBWRITER BECAUSE UNIT CELL INFORMATION
REMARK     285 WAS MISSING.
REMARK     285 PROTEIN DATA BANK CONVENTIONS REQUIRE THAT
REMARK     285 CRYST1 RECORD IS INCLUDED, BUT THE VALUES ON
REMARK     285 THIS RECORD ARE MEANINGLESS.
REMARK     285 UNITARY VALUES FOR THE UNIT CELL AUTOMATICALLY SET
REMARK     285 BY MDANALYSIS PDBWRITER BECAUSE UNIT CELL INFORMATION
REMARK     285 WAS MISSING.
REMARK     285 PROTEIN DATA BANK CONVENTIONS REQUIRE THAT
REMARK     285 CRYST1 RECORD IS INCLUDED, BUT THE VALUES ON
REMARK     285 THIS RECORD ARE MEANINGLESS.
REMARK                            x       y       z     vdW  Elec       q    Type
REMARK                         _______ _______ _______ _____ _____    ______ ____
REMARK  Name = /var/folders/yp/yjbh3p597675h2qddgqr02y00000gn/T/tmp1iywa0xi.pdb
REMARK     285 UNITARY VALUES FOR THE UNIT CELL AUTOMATICALLY SET
REMARK     285 BY MDANALYSIS PDBWRITER BECAUSE UNIT CELL INFORMATION
REMARK     285 WAS MISSING.
REMARK     285 PROTEIN DATA BANK CONVENTIONS REQUIRE THAT
REMARK     285 CRYST1 RECORD IS INCLUDED, BUT THE VALUES ON
REMARK     285 THIS RECORD ARE MEANINGLESS.
REMARK     285 UNITARY VALUES FOR THE UNIT CELL AUTOMATICALLY SET
REMARK     285 BY MDANALYSIS PDBWRITER BECAUSE UNIT CELL INFORMATION
REMARK     285 WAS MISSING.
REMARK     285 PROTEIN DATA BANK CONVENTIONS REQUIRE THAT
REMARK     285 CRYST1 RECORD IS INCLUDED, BUT THE VALUES ON
REMARK     285 THIS RECORD ARE MEANINGLESS.
REMARK                            x       y       z     vdW  Elec       q    Type
REMARK                         _______ _______ _______ _____ _____    ______ ____
ROOT
ATOM      1  N   MET A   1     -23.277  18.592   4.353  1.00  0.00    -0.129 NA
ATOM      2  CA  MET A   1     -24.392  18.312   5.253  1.00  0.00    +0.137 C 
ATOM      3  C   MET A   1     -23.895  18.026   6.661  1.00  0.00    +0.209 C 
ATOM      4  O   MET A   1     -22.959  17.251   6.847  1.00  0.00    -0.317 OA
ATOM      5  CB  MET A   1     -25.210  17.132   4.754  1.00  0.00    +0.035 C 
ATOM      6  CG  MET A   1     -26.709  17.306   4.934  1.00  0.00    +0.059 C 
ATOM      7  SD  MET A   1     -27.124  18.693   6.023  1.00  0.00    -0.139 S 
ATOM      8  CE  MET A   1     -27.605  19.924   4.817  1.00  0.00    +0.069 C 
ATOM      9  N   LYS A   2     -24.524  18.649   7.653  1.00  0.00    -0.183 NA
ATOM     10  CA  LYS A   2     -23.806  19.520   8.580  1.00  0.00    +0.153 C 
ATOM     11  C   LYS A   2     -22.943  18.708   9.534  1.00  0.00    +0.260 C 
ATOM     12  O   LYS A   2     -23.113  18.789  10.750  1.00  0.00    -0.272 OA
ATOM     13  CB  LYS A   2     -24.773  20.378   9.376  1.00  0.00    +0.027 C 
ATOM     14  CG  LYS A   2     -24.488  21.869   9.290  1.00  0.00    +0.008 C 
ATOM     15  CD  LYS A   2     -23.037  22.186   9.612  1.00  0.00    +0.049 C 
ATOM     16  CE  LYS A   2     -22.826  23.620   9.793  1.00  0.00    +0.096 C 
ATOM     17  NZ  LYS A   2     -21.644  24.226   9.731  1.00  0.00    -0.151 NA
ATOM     18  N   LEU A   3     -22.018  17.927   8.985  1.00  0.00    -0.172 N 
ATOM     19  CA  LEU A   3     -22.113  17.500   7.592  1.00  0.00    +0.243 C 
ATOM     20  C   LEU A   3     -22.170  15.985   7.494  1.00  0.00    +0.286 C 
ATOM     21  O   LEU A   3     -21.444  15.286   8.200  1.00  0.00    -0.269 OA
ATOM     22  CB  LEU A   3     -20.932  18.017   6.788  1.00  0.00    +0.058 C 
ATOM     23  CG  LEU A   3     -21.187  19.268   5.945  1.00  0.00    +0.005 C 
ATOM     24  CD1 LEU A   3     -19.915  19.678   5.212  1.00  0.00    +0.000 C 
ATOM     25  CD2 LEU A   3     -21.346  20.493   6.838  1.00  0.00    +0.000 C 
ATOM     26  N   ALA A   4     -23.033  15.475   6.620  1.00  0.00    -0.194 N 
ATOM     27  CA  ALA A   4     -22.772  14.207   5.944  1.00  0.00    +0.173 C 
ATOM     28  C   ALA A   4     -21.497  14.280   5.120  1.00  0.00    +0.262 C 
ATOM     29  O   ALA A   4     -21.286  15.239   4.380  1.00  0.00    -0.271 OA
ATOM     30  CB  ALA A   4     -23.937  13.825   5.045  1.00  0.00    +0.033 C 
ATOM     31  N   VAL A   5     -20.646  13.267   5.248  1.00  0.00    -0.196 N 
ATOM     32  CA  VAL A   5     -19.921  12.734   4.099  1.00  0.00    +0.173 C 
ATOM     33  C   VAL A   5     -20.584  11.453   3.622  1.00  0.00    +0.262 C 
ATOM     34  O   VAL A   5     -20.642  10.468   4.356  1.00  0.00    -0.271 OA
ATOM     35  CB  VAL A   5     -18.461  12.457   4.427  1.00  0.00    +0.029 C 
ATOM     36  CG1 VAL A   5     -17.574  12.746   3.219  1.00  0.00    +0.002 C 
ATOM     37  CG2 VAL A   5     -17.996  13.348   5.577  1.00  0.00    +0.002 C 
ATOM     38  N   PHE A   6     -21.084  11.463   2.389  1.00  0.00    -0.196 N 
ATOM     39  CA  PHE A   6     -21.998  10.422   1.932  1.00  0.00    +0.177 C 
ATOM     40  C   PHE A   6     -21.247   9.134   1.641  1.00  0.00    +0.262 C 
ATOM     41  O   PHE A   6     -20.209   9.151   0.980  1.00  0.00    -0.271 OA
ATOM     42  CB  PHE A   6     -22.745  10.865   0.684  1.00  0.00    +0.057 C 
ATOM     43  CG  PHE A   6     -21.965  11.804  -0.189  1.00  0.00    -0.020 A 
ATOM     44  CD1 PHE A   6     -20.944  11.315  -0.994  1.00  0.00    -0.004 A 
ATOM     45  CE1 PHE A   6     -20.222  12.184  -1.804  1.00  0.00    -0.000 A 
ATOM     46  CD2 PHE A   6     -22.264  13.161  -0.191  1.00  0.00    -0.004 A 
ATOM     47  CE2 PHE A   6     -21.541  14.031  -1.001  1.00  0.00    -0.000 A 
ATOM     48  CZ  PHE A   6     -20.520  13.542  -1.806  1.00  0.00    -0.000 A 
ATOM     49  N   ALA A   7     -21.769   8.014   2.135  1.00  0.00    -0.196 N 
ATOM     50  CA  ALA A   7     -21.393   6.704   1.611  1.00  0.00    +0.173 C 
ATOM     51  C   ALA A   7     -21.740   6.585   0.136  1.00  0.00    +0.262 C 
ATOM     52  O   ALA A   7     -20.905   6.181  -0.670  1.00  0.00    -0.271 OA
ATOM     53  CB  ALA A   7     -22.082   5.594   2.386  1.00  0.00    +0.033 C 
ATOM     54  N   LEU A   8     -22.973   6.936  -0.216  1.00  0.00    -0.196 N 
ATOM     55  CA  LEU A   8     -23.991   5.936  -0.523  1.00  0.00    +0.173 C 
ATOM     56  C   LEU A   8     -23.956   5.560  -1.996  1.00  0.00    +0.262 C 
ATOM     57  O   LEU A   8     -24.107   4.392  -2.348  1.00  0.00    -0.271 OA
ATOM     58  CB  LEU A   8     -25.377   6.448  -0.163  1.00  0.00    +0.031 C 
ATOM     59  CG  LEU A   8     -25.847   6.168   1.266  1.00  0.00    +0.002 C 
ATOM     60  CD1 LEU A   8     -27.301   5.710   1.262  1.00  0.00    +0.000 C 
ATOM     61  CD2 LEU A   8     -26.016   7.472   2.039  1.00  0.00    +0.000 C 
ATOM     62  N   ARG A   9     -23.756   6.553  -2.858  1.00  0.00    -0.196 N 
ATOM     63  CA  ARG A   9     -24.245   6.475  -4.233  1.00  0.00    +0.173 C 
ATOM     64  C   ARG A   9     -23.345   5.589  -5.080  1.00  0.00    +0.262 C 
ATOM     65  O   ARG A   9     -23.826   4.853  -5.940  1.00  0.00    -0.271 OA
ATOM     66  CB  ARG A   9     -24.328   7.858  -4.858  1.00  0.00    +0.033 C 
ATOM     67  CG  ARG A   9     -25.214   8.827  -4.089  1.00  0.00    +0.029 C 
ATOM     68  CD  ARG A   9     -25.354  10.157  -4.811  1.00  0.00    +0.129 C 
ATOM     69  NE  ARG A   9     -26.427  10.967  -4.243  1.00  0.00    -0.234 NA
ATOM     70  CZ  ARG A   9     -26.256  12.156  -3.670  1.00  0.00    +0.284 C 
ATOM     71  NH1 ARG A   9     -25.053  12.716  -3.616  1.00  0.00    -0.104 N 
ATOM     72  NH2 ARG A   9     -27.303  12.788  -3.146  1.00  0.00    -0.104 N 
ATOM     73  N   VAL A  10     -22.039   5.660  -4.838  1.00  0.00    -0.196 N 
ATOM     74  CA  VAL A  10     -21.189   6.624  -5.530  1.00  0.00    +0.173 C 
ATOM     75  C   VAL A  10     -20.273   5.898  -6.503  1.00  0.00    +0.262 C 
ATOM     76  O   VAL A  10     -19.919   4.742  -6.281  1.00  0.00    -0.271 OA
ATOM     77  CB  VAL A  10     -20.353   7.442  -4.558  1.00  0.00    +0.029 C 
ATOM     78  CG1 VAL A  10     -21.201   8.529  -3.901  1.00  0.00    +0.002 C 
ATOM     79  CG2 VAL A  10     -19.793   6.549  -3.454  1.00  0.00    +0.002 C 
ATOM     80  N   PHE A  11     -19.890   6.578  -7.580  1.00  0.00    -0.196 N 
ATOM     81  CA  PHE A  11     -19.432   5.893  -8.786  1.00  0.00    +0.177 C 
ATOM     82  C   PHE A  11     -18.028   5.344  -8.594  1.00  0.00    +0.262 C 
ATOM     83  O   PHE A  11     -17.134   6.058  -8.145  1.00  0.00    -0.271 OA
ATOM     84  CB  PHE A  11     -19.452   6.830  -9.982  1.00  0.00    +0.053 C 
ATOM     85  CG  PHE A  11     -19.440   6.126 -11.306  1.00  0.00    -0.044 C 
ATOM     86  CD1 PHE A  11     -20.628   5.661 -11.858  1.00  0.00    +0.022 C 
ATOM     87  CE1 PHE A  11     -20.616   5.008 -13.085  1.00  0.00    +0.005 C 
ATOM     88  CD2 PHE A  11     -18.239   5.936 -11.981  1.00  0.00    -0.003 C 
ATOM     89  CE2 PHE A  11     -18.228   5.283 -13.208  1.00  0.00    +0.169 C 
ATOM     90  N   PHE A  12     -17.832   4.073  -8.934  1.00  0.00    -0.196 N 
ATOM     91  CA  PHE A  12     -16.576   3.629  -9.529  1.00  0.00    +0.177 C 
ATOM     92  C   PHE A  12     -16.643   3.704 -11.046  1.00  0.00    +0.262 C 
ATOM     93  O   PHE A  12     -15.798   4.335 -11.678  1.00  0.00    -0.271 OA
ATOM     94  CB  PHE A  12     -16.246   2.208  -9.105  1.00  0.00    +0.057 C 
ATOM     95  CG  PHE A  12     -17.174   1.655  -8.064  1.00  0.00    -0.020 A 
ATOM     96  CD1 PHE A  12     -16.734   1.490  -6.756  1.00  0.00    -0.004 A 
ATOM     97  CE1 PHE A  12     -17.593   0.977  -5.793  1.00  0.00    -0.000 A 
ATOM     98  CD2 PHE A  12     -18.476   1.307  -8.408  1.00  0.00    -0.004 A 
ATOM     99  CE2 PHE A  12     -19.335   0.795  -7.444  1.00  0.00    -0.000 A 
ATOM    100  CZ  PHE A  12     -18.895   0.629  -6.137  1.00  0.00    -0.000 A 
ATOM    101  N   ALA A  13     -17.648   3.058 -11.631  1.00  0.00    -0.202 N 
ATOM    102  CA  ALA A  13     -17.510   2.490 -12.969  1.00  0.00    +0.139 C 
ATOM    103  C   ALA A  13     -17.477   3.583 -14.025  1.00  0.00    +0.210 C 
ATOM    104  O   ALA A  13     -18.202   4.571 -13.923  1.00  0.00    -0.333 OA
ATOM    105  CB  ALA A  13     -18.651   1.530 -13.267  1.00  0.00    +0.028 C 
ATOM    106  N   GLU A  14     -16.636   3.405 -15.040  1.00  0.00    -0.182 NA
ATOM    107  CA  GLU A  14     -16.762   4.174 -16.276  1.00  0.00    +0.153 C 
ATOM    108  C   GLU A  14     -17.900   3.648 -17.134  1.00  0.00    +0.258 C 
ATOM    109  O   GLU A  14     -18.161   2.446 -17.159  1.00  0.00    -0.272 OA
ATOM    110  CB  GLU A  14     -15.468   4.138 -17.070  1.00  0.00    +0.039 C 
ATOM    111  CG  GLU A  14     -15.578   4.763 -18.451  1.00  0.00    +0.116 C 
ATOM    112  CD  GLU A  14     -14.438   4.375 -19.379  1.00  0.00    +0.365 C 
ATOM    113  OE1 GLU A  14     -13.468   3.740 -18.915  1.00  0.00    -0.246 OA
ATOM    114  OE2 GLU A  14     -14.515   4.714 -20.580  1.00  0.00    -0.246 OA
ATOM    115  N   SER A  15     -18.579   4.548 -17.842  1.00  0.00    -0.194 N 
ATOM    116  CA  SER A  15     -19.314   4.171 -19.046  1.00  0.00    +0.205 C 
ATOM    117  C   SER A  15     -18.384   4.041 -20.241  1.00  0.00    +0.264 C 
ATOM    118  O   SER A  15     -18.621   4.644 -21.286  1.00  0.00    -0.271 OA
ATOM    119  CB  SER A  15     -20.397   5.192 -19.354  1.00  0.00    +0.213 C 
ATOM    120  OG  SER A  15     -19.907   6.510 -19.190  1.00  0.00    -0.218 OA
ATOM    121  N   SER A  16     -17.324   3.251 -20.089  1.00  0.00    -0.194 N 
ATOM    122  CA  SER A  16     -16.985   2.236 -21.081  1.00  0.00    +0.205 C 
ATOM    123  C   SER A  16     -17.964   1.075 -21.038  1.00  0.00    +0.264 C 
ATOM    124  O   SER A  16     -17.727   0.082 -20.352  1.00  0.00    -0.271 OA
ATOM    125  CB  SER A  16     -15.575   1.716 -20.855  1.00  0.00    +0.213 C 
ATOM    126  OG  SER A  16     -15.547   0.783 -19.787  1.00  0.00    -0.218 OA
ATOM    127  N   ASP A  17     -19.066   1.196 -21.773  1.00  0.00    -0.196 N 
ATOM    128  CA  ASP A  17     -19.017   1.144 -23.231  1.00  0.00    +0.184 C 
ATOM    129  C   ASP A  17     -18.691   2.511 -23.813  1.00  0.00    +0.262 C 
ATOM    130  O   ASP A  17     -19.214   3.525 -23.355  1.00  0.00    -0.271 OA
ATOM    131  CB  ASP A  17     -20.337   0.652 -23.802  1.00  0.00    +0.145 C 
ATOM    132  CG  ASP A  17     -20.746  -0.708 -23.264  1.00  0.00    +0.367 C 
ATOM    133  OD1 ASP A  17     -19.869  -1.579 -23.076  1.00  0.00    -0.246 OA
ATOM    134  OD2 ASP A  17     -21.958  -0.912 -23.028  1.00  0.00    -0.246 OA
ATOM    135  N   ALA A  18     -17.828   2.538 -24.825  1.00  0.00    -0.196 N 
ATOM    136  CA  ALA A  18     -17.940   3.529 -25.892  1.00  0.00    +0.173 C 
ATOM    137  C   ALA A  18     -17.682   2.902 -27.251  1.00  0.00    +0.262 C 
ATOM    138  O   ALA A  18     -16.566   2.472 -27.539  1.00  0.00    -0.271 OA
ATOM    139  CB  ALA A  18     -16.966   4.674 -25.668  1.00  0.00    +0.033 C 
ATOM    140  N   ILE A  19     -18.714   2.848 -28.089  1.00  0.00    -0.196 N 
ATOM    141  CA  ILE A  19     -19.186   4.038 -28.789  1.00  0.00    +0.173 C 
ATOM    142  C   ILE A  19     -20.628   4.319 -28.403  1.00  0.00    +0.262 C 
ATOM    143  O   ILE A  19     -21.439   3.400 -28.301  1.00  0.00    -0.271 OA
ATOM    144  CB  ILE A  19     -19.086   3.887 -30.298  1.00  0.00    +0.029 C 
ATOM    145  CG1 ILE A  19     -18.098   2.782 -30.666  1.00  0.00    +0.002 C 
ATOM    146  CG2 ILE A  19     -18.638   5.200 -30.937  1.00  0.00    +0.002 C 
ATOM    147  CD1 ILE A  19     -18.756   1.466 -31.047  1.00  0.00    +0.000 C 
ATOM    148  N   ARG A  20     -20.951   5.592 -28.187  1.00  0.00    -0.196 N 
ATOM    149  CA  ARG A  20     -22.346   6.018 -28.096  1.00  0.00    +0.173 C 
ATOM    150  C   ARG A  20     -23.216   5.244 -29.074  1.00  0.00    +0.262 C 
ATOM    151  O   ARG A  20     -22.709   4.459 -29.874  1.00  0.00    -0.271 OA
ATOM    152  CB  ARG A  20     -22.476   7.507 -28.369  1.00  0.00    +0.033 C 
ATOM    153  CG  ARG A  20     -23.804   8.099 -27.929  1.00  0.00    +0.029 C 
ATOM    154  CD  ARG A  20     -23.988   9.519 -28.440  1.00  0.00    +0.129 C 
ATOM    155  NE  ARG A  20     -24.417  10.424 -27.379  1.00  0.00    -0.234 NA
ATOM    156  CZ  ARG A  20     -25.681  10.745 -27.121  1.00  0.00    +0.284 C 
ATOM    157  NH1 ARG A  20     -26.268  11.753 -27.759  1.00  0.00    -0.104 N 
ATOM    158  NH2 ARG A  20     -26.366  10.050 -26.216  1.00  0.00    -0.104 N 
ATOM    159  N   ARG A  21     -24.526   5.462 -29.008  1.00  0.00    -0.194 N 
ATOM    160  CA  ARG A  21     -25.488   4.402 -29.284  1.00  0.00    +0.198 C 
ATOM    161  C   ARG A  21     -26.033   4.514 -30.699  1.00  0.00    +0.384 C 
ATOM    162  O   ARG A  21     -26.371   3.508 -31.320  1.00  0.00    -0.244 OA
ATOM    163  CB  ARG A  21     -26.640   4.442 -28.293  1.00  0.00    +0.035 C 
ATOM    164  CG  ARG A  21     -26.271   3.949 -26.902  1.00  0.00    +0.029 C 
ATOM    165  CD  ARG A  21     -25.513   2.633 -26.953  1.00  0.00    +0.129 C 
ATOM    166  NE  ARG A  21     -25.178   2.152 -25.617  1.00  0.00    -0.234 NA
ATOM    167  CZ  ARG A  21     -25.943   1.346 -24.886  1.00  0.00    +0.284 C 
ATOM    168  NH1 ARG A  21     -27.118   0.926 -25.347  1.00  0.00    -0.104 N 
ATOM    169  NH2 ARG A  21     -25.528   0.956 -23.684  1.00  0.00    -0.104 N 
ATOM    170  OXT ARG A  21     -26.144   5.613 -31.240  1.00  0.00    -0.244 OA
ATOM    171  H   MET A   1     -23.635  18.781   3.417  1.00  0.00    +0.000 HD
ATOM    172  H   MET A   1     -22.654  17.785   4.323  1.00  0.00    +0.000 HD
ATOM    173  H   LYS A   2     -24.960  17.922   8.220  1.00  0.00    +0.000 HD
ATOM    174  H   LYS A   2     -20.831  23.701   9.552  1.00  0.00    +0.000 HD
ATOM    175  H   LEU A   3     -21.253  17.631   9.529  1.00  0.00    +0.000 HD
ATOM    176  H   ALA A   4     -23.866  15.962   6.425  1.00  0.00    +0.000 HD
ATOM    177  H   VAL A   5     -20.501  12.869   6.136  1.00  0.00    +0.000 HD
ATOM    178  H   PHE A   6     -20.833  12.188   1.773  1.00  0.00    +0.000 HD
ATOM    179  H   ALA A   7     -22.423   8.069   2.869  1.00  0.00    +0.000 HD
ATOM    180  H   LEU A   8     -23.204   7.892  -0.272  1.00  0.00    +0.000 HD
ATOM    181  H   ARG A   9     -23.268   7.356  -2.564  1.00  0.00    +0.000 HD
ATOM    182  H   ARG A   9     -24.276  12.252  -4.003  1.00  0.00    +0.000 HD
ATOM    183  H   ARG A   9     -24.938  13.595  -3.188  1.00  0.00    +0.000 HD
ATOM    184  H   ARG A   9     -28.196  12.376  -3.184  1.00  0.00    +0.000 HD
ATOM    185  H   ARG A   9     -27.185  13.667  -2.719  1.00  0.00    +0.000 HD
ATOM    186  H   VAL A  10     -21.637   5.049  -4.179  1.00  0.00    +0.000 HD
ATOM    187  H   PHE A  11     -19.916   7.562  -7.565  1.00  0.00    +0.000 HD
ATOM    188  H   PHE A  12     -18.551   3.418  -8.781  1.00  0.00    +0.000 HD
ATOM    189  H   ALA A  13     -18.502   2.961 -11.152  1.00  0.00    +0.000 HD
ATOM    190  H   GLU A  14     -15.702   3.595 -14.677  1.00  0.00    +0.000 HD
ATOM    191  H   GLU A  14     -13.451   3.506 -18.007  1.00  0.00    +0.000 HD
ATOM    192  H   SER A  15     -18.586   5.487 -17.547  1.00  0.00    +0.000 HD
ATOM    193  H   SER A  15     -19.167   6.659 -19.800  1.00  0.00    +0.000 HD
ATOM    194  H   SER A  16     -16.756   3.354 -19.291  1.00  0.00    +0.000 HD
ATOM    195  H   SER A  16     -15.847   1.215 -18.973  1.00  0.00    +0.000 HD
ATOM    196  H   ASP A  17     -19.933   1.323 -21.325  1.00  0.00    +0.000 HD
ATOM    197  H   ASP A  17     -18.972  -1.389 -23.265  1.00  0.00    +0.000 HD
ATOM    198  H   ALA A  18     -17.100   1.877 -24.856  1.00  0.00    +0.000 HD
ATOM    199  H   ILE A  19     -19.167   1.988 -28.240  1.00  0.00    +0.000 HD
ATOM    200  H   ARG A  20     -20.235   6.260 -28.085  1.00  0.00    +0.000 HD
ATOM    201  H   ARG A  20     -27.205  11.983 -27.560  1.00  0.00    +0.000 HD
ATOM    202  H   ARG A  20     -25.767  12.269 -28.431  1.00  0.00    +0.000 HD
ATOM    203  H   ARG A  20     -27.302  10.284 -26.022  1.00  0.00    +0.000 HD
ATOM    204  H   ARG A  20     -25.936   9.303 -25.742  1.00  0.00    +0.000 HD
ATOM    205  H   ARG A  21     -24.854   6.359 -28.768  1.00  0.00    +0.000 HD
ATOM    206  H   ARG A  21     -27.429   1.212 -26.235  1.00  0.00    +0.000 HD
ATOM    207  H   ARG A  21     -27.677   0.329 -24.798  1.00  0.00    +0.000 HD
ATOM    208  H   ARG A  21     -26.090   0.359 -23.139  1.00  0.00    +0.000 HD
ATOM    209  H   ARG A  21     -24.659   1.264 -23.339  1.00  0.00    +0.000 HD
ATOM    210  H   ARG A  21     -25.891   6.389 -30.781  1.00  0.00    +0.000 HD
ATOM      1  CZ  PHE A  11     -19.416   4.819 -13.761  1.00  0.00    +0.000 C 
ENDROOT
TORSDOF 0
