REMARK  Name = /var/folders/yp/yjbh3p597675h2qddgqr02y00000gn/T/tmpq_jlvd_r.pdb
REMARK     285 UNITARY VALUES FOR THE UNIT CELL AUTOMATICALLY SET
REMARK     285 BY MDANALYSIS PDBWRITER BECAUSE UNIT CELL INFORMATION
REMARK     285 WAS MISSING.
REMARK     285 PROTEIN DATA BANK CONVENTIONS REQUIRE THAT
REMARK     285 CRYST1 RECORD IS INCLUDED, BUT THE VALUES ON
REMARK     285 THIS RECORD ARE MEANINGLESS.
REMARK     285 UNITARY VALUES FOR THE UNIT CELL AUTOMATICALLY SET
REMARK     285 BY MDANALYSIS PDBWRITER BECAUSE UNIT CELL INFORMATION
REMARK     285 WAS MISSING.
REMARK     285 PROTEIN DATA BANK CONVENTIONS REQUIRE THAT
REMARK     285 CRYST1 RECORD IS INCLUDED, BUT THE VALUES ON
REMARK     285 THIS RECORD ARE MEANINGLESS.
REMARK                            x       y       z     vdW  Elec       q    Type
REMARK                         _______ _______ _______ _____ _____    ______ ____
ROOT
ATOM      1  N   MET A   1      10.431   8.520   3.598  1.00  0.00    -0.123 NA
ATOM      2  CA  MET A   1       9.000   8.338   3.370  1.00  0.00    +0.170 C 
ATOM      3  C   MET A   1       8.698   8.213   1.886  1.00  0.00    +0.259 C 
ATOM      4  O   MET A   1       9.397   8.791   1.055  1.00  0.00    -0.272 OA
ATOM      5  CB  MET A   1       8.207   9.498   3.952  1.00  0.00    +0.040 C 
ATOM      6  CG  MET A   1       8.406   9.682   5.448  1.00  0.00    +0.060 C 
ATOM      7  SD  MET A   1       7.195  10.812   6.179  1.00  0.00    -0.139 S 
ATOM      8  CE  MET A   1       6.588   9.812   7.533  1.00  0.00    +0.069 C 
ATOM      9  N   LYS A   2       7.656   7.458   1.551  1.00  0.00    -0.197 N 
ATOM     10  CA  LYS A   2       7.437   7.032   0.172  1.00  0.00    +0.173 C 
ATOM     11  C   LYS A   2       6.876   8.169  -0.668  1.00  0.00    +0.262 C 
ATOM     12  O   LYS A   2       6.019   8.920  -0.207  1.00  0.00    -0.271 OA
ATOM     13  CB  LYS A   2       6.490   5.845   0.116  1.00  0.00    +0.031 C 
ATOM     14  CG  LYS A   2       7.128   4.575  -0.425  1.00  0.00    +0.009 C 
ATOM     15  CD  LYS A   2       6.162   3.403  -0.399  1.00  0.00    +0.049 C 
ATOM     16  CE  LYS A   2       4.809   3.827  -0.048  1.00  0.00    +0.096 C 
ATOM     17  NZ  LYS A   2       4.282   3.750   1.171  1.00  0.00    -0.151 NA
ATOM     18  N   LEU A   3       7.358   8.294  -1.901  1.00  0.00    -0.196 N 
ATOM     19  CA  LEU A   3       6.560   7.938  -3.070  1.00  0.00    +0.173 C 
ATOM     20  C   LEU A   3       6.448   6.430  -3.210  1.00  0.00    +0.262 C 
ATOM     21  O   LEU A   3       7.392   5.703  -2.901  1.00  0.00    -0.271 OA
ATOM     22  CB  LEU A   3       7.167   8.522  -4.335  1.00  0.00    +0.031 C 
ATOM     23  CG  LEU A   3       7.131  10.047  -4.458  1.00  0.00    +0.002 C 
ATOM     24  CD1 LEU A   3       6.682  10.453  -5.856  1.00  0.00    +0.000 C 
ATOM     25  CD2 LEU A   3       8.545  10.616  -4.492  1.00  0.00    +0.000 C 
ATOM     26  N   ALA A   4       5.296   5.957  -3.675  1.00  0.00    -0.196 N 
ATOM     27  CA  ALA A   4       5.089   4.526  -3.883  1.00  0.00    +0.173 C 
ATOM     28  C   ALA A   4       6.070   3.975  -4.904  1.00  0.00    +0.262 C 
ATOM     29  O   ALA A   4       6.469   4.678  -5.831  1.00  0.00    -0.271 OA
ATOM     30  CB  ALA A   4       3.667   4.248  -4.343  1.00  0.00    +0.033 C 
ATOM     31  N   VAL A   5       6.461   2.716  -4.736  1.00  0.00    -0.196 N 
ATOM     32  CA  VAL A   5       6.810   1.869  -5.873  1.00  0.00    +0.173 C 
ATOM     33  C   VAL A   5       5.760   0.785  -6.049  1.00  0.00    +0.262 C 
ATOM     34  O   VAL A   5       5.469   0.040  -5.115  1.00  0.00    -0.271 OA
ATOM     35  CB  VAL A   5       8.178   1.227  -5.704  1.00  0.00    +0.029 C 
ATOM     36  CG1 VAL A   5       8.967   1.285  -7.010  1.00  0.00    +0.002 C 
ATOM     37  CG2 VAL A   5       8.983   1.962  -4.634  1.00  0.00    +0.002 C 
ATOM     38  N   PHE A   6       5.191   0.696  -7.247  1.00  0.00    -0.196 N 
ATOM     39  CA  PHE A   6       5.631  -0.294  -8.226  1.00  0.00    +0.177 C 
ATOM     40  C   PHE A   6       4.461  -1.133  -8.709  1.00  0.00    +0.262 C 
ATOM     41  O   PHE A   6       3.961  -1.987  -7.979  1.00  0.00    -0.271 OA
ATOM     42  CB  PHE A   6       6.699  -1.202  -7.637  1.00  0.00    +0.057 C 
ATOM     43  CG  PHE A   6       7.521  -1.920  -8.667  1.00  0.00    -0.020 A 
ATOM     44  CD1 PHE A   6       8.900  -1.753  -8.693  1.00  0.00    -0.004 A 
ATOM     45  CE1 PHE A   6       9.661  -2.418  -9.647  1.00  0.00    -0.001 A 
ATOM     46  CD2 PHE A   6       6.902  -2.751  -9.593  1.00  0.00    -0.008 A 
ATOM     47  CE2 PHE A   6       7.664  -3.416 -10.547  1.00  0.00    -0.021 A 
ATOM     48  CZ  PHE A   6       9.043  -3.249 -10.574  1.00  0.00    -0.004 A 
ATOM     49  N   ALA A   7       4.022  -0.892  -9.942  1.00  0.00    -0.196 N 
ATOM     50  CA  ALA A   7       2.971  -1.704 -10.548  1.00  0.00    +0.173 C 
ATOM     51  C   ALA A   7       3.464  -3.114 -10.830  1.00  0.00    +0.262 C 
ATOM     52  O   ALA A   7       2.665  -4.042 -10.946  1.00  0.00    -0.271 OA
ATOM     53  CB  ALA A   7       2.475  -1.071 -11.838  1.00  0.00    +0.033 C 
ATOM     54  N   LEU A   8       4.779  -3.276 -10.941  1.00  0.00    -0.196 N 
ATOM     55  CA  LEU A   8       5.348  -4.424 -11.641  1.00  0.00    +0.177 C 
ATOM     56  C   LEU A   8       5.191  -5.692 -10.817  1.00  0.00    +0.262 C 
ATOM     57  O   LEU A   8       5.120  -6.789 -11.367  1.00  0.00    -0.271 OA
ATOM     58  CB  LEU A   8       6.820  -4.194 -11.944  1.00  0.00    +0.051 C 
ATOM     59  CG  LEU A   8       7.401  -4.999 -13.108  1.00  0.00    +0.006 C 
ATOM     60  CD1 LEU A   8       7.721  -6.420 -12.659  1.00  0.00    +0.000 C 
ATOM     61  CD2 LEU A   8       8.817  -4.531 -13.428  1.00  0.00    +0.000 C 
ATOM     62  N   ARG A   9       5.136  -5.541  -9.497  1.00  0.00    -0.196 N 
ATOM     63  CA  ARG A   9       5.354  -6.669  -8.594  1.00  0.00    +0.173 C 
ATOM     64  C   ARG A   9       4.237  -7.692  -8.721  1.00  0.00    +0.262 C 
ATOM     65  O   ARG A   9       4.492  -8.894  -8.760  1.00  0.00    -0.271 OA
ATOM     66  CB  ARG A   9       5.448  -6.198  -7.152  1.00  0.00    +0.033 C 
ATOM     67  CG  ARG A   9       6.763  -5.512  -6.815  1.00  0.00    +0.029 C 
ATOM     68  CD  ARG A   9       6.678  -4.739  -5.508  1.00  0.00    +0.129 C 
ATOM     69  NE  ARG A   9       6.556  -5.633  -4.360  1.00  0.00    -0.234 NA
ATOM     70  CZ  ARG A   9       7.015  -5.367  -3.140  1.00  0.00    +0.284 C 
ATOM     71  NH1 ARG A   9       7.481  -4.158  -2.840  1.00  0.00    -0.104 N 
ATOM     72  NH2 ARG A   9       7.007  -6.320  -2.213  1.00  0.00    -0.104 N 
ATOM     73  N   VAL A  10       2.997  -7.215  -8.786  1.00  0.00    -0.196 N 
ATOM     74  CA  VAL A  10       2.224  -6.939  -7.579  1.00  0.00    +0.173 C 
ATOM     75  C   VAL A  10       1.900  -8.242  -6.866  1.00  0.00    +0.262 C 
ATOM     76  O   VAL A  10       2.049  -8.342  -5.650  1.00  0.00    -0.271 OA
ATOM     77  CB  VAL A  10       0.935  -6.195  -7.889  1.00  0.00    +0.029 C 
ATOM     78  CG1 VAL A  10       0.556  -5.271  -6.734  1.00  0.00    +0.002 C 
ATOM     79  CG2 VAL A  10       1.103  -5.338  -9.141  1.00  0.00    +0.002 C 
ATOM     80  N   PHE A  11       1.454  -9.241  -7.624  1.00  0.00    -0.196 N 
ATOM     81  CA  PHE A  11       0.026  -9.519  -7.750  1.00  0.00    +0.177 C 
ATOM     82  C   PHE A  11      -0.470 -10.339  -6.571  1.00  0.00    +0.262 C 
ATOM     83  O   PHE A  11      -1.619 -10.199  -6.152  1.00  0.00    -0.271 OA
ATOM     84  CB  PHE A  11      -0.269 -10.260  -9.044  1.00  0.00    +0.057 C 
ATOM     85  CG  PHE A  11      -1.690 -10.726  -9.167  1.00  0.00    -0.020 A 
ATOM     86  CD1 PHE A  11      -2.731  -9.809  -9.097  1.00  0.00    -0.004 A 
ATOM     87  CE1 PHE A  11      -4.047 -10.241  -9.211  1.00  0.00    -0.000 A 
ATOM     88  CD2 PHE A  11      -1.964 -12.076  -9.349  1.00  0.00    -0.004 A 
ATOM     89  CE2 PHE A  11      -3.280 -12.509  -9.463  1.00  0.00    -0.000 A 
ATOM     90  CZ  PHE A  11      -4.322 -11.591  -9.394  1.00  0.00    -0.000 A 
ATOM     91  N   PHE A  12       0.394 -11.195  -6.034  1.00  0.00    -0.196 N 
ATOM     92  CA  PHE A  12       0.028 -12.033  -4.896  1.00  0.00    +0.177 C 
ATOM     93  C   PHE A  12       0.488 -11.401  -3.592  1.00  0.00    +0.262 C 
ATOM     94  O   PHE A  12      -0.150 -11.574  -2.555  1.00  0.00    -0.271 OA
ATOM     95  CB  PHE A  12       0.631 -13.421  -5.028  1.00  0.00    +0.057 C 
ATOM     96  CG  PHE A  12      -0.062 -14.290  -6.035  1.00  0.00    -0.020 A 
ATOM     97  CD1 PHE A  12      -1.397 -14.634  -5.856  1.00  0.00    -0.004 A 
ATOM     98  CE1 PHE A  12      -2.038 -15.440  -6.789  1.00  0.00    -0.000 A 
ATOM     99  CD2 PHE A  12       0.632 -14.754  -7.148  1.00  0.00    -0.004 A 
ATOM    100  CE2 PHE A  12      -0.010 -15.559  -8.081  1.00  0.00    -0.000 A 
ATOM    101  CZ  PHE A  12      -1.345 -15.902  -7.902  1.00  0.00    -0.000 A 
ATOM    102  N   ALA A  13       1.596 -10.667  -3.644  1.00  0.00    -0.196 N 
ATOM    103  CA  ALA A  13       2.634 -10.927  -4.637  1.00  0.00    +0.173 C 
ATOM    104  C   ALA A  13       3.630 -11.958  -4.130  1.00  0.00    +0.262 C 
ATOM    105  O   ALA A  13       3.687 -12.233  -2.932  1.00  0.00    -0.271 OA
ATOM    106  CB  ALA A  13       3.368  -9.646  -4.998  1.00  0.00    +0.033 C 
ATOM    107  N   GLU A  14       4.414 -12.528  -5.040  1.00  0.00    -0.196 N 
ATOM    108  CA  GLU A  14       5.832 -12.762  -4.782  1.00  0.00    +0.173 C 
ATOM    109  C   GLU A  14       6.636 -11.481  -4.934  1.00  0.00    +0.262 C 
ATOM    110  O   GLU A  14       6.264 -10.597  -5.703  1.00  0.00    -0.271 OA
ATOM    111  CB  GLU A  14       6.385 -13.822  -5.720  1.00  0.00    +0.043 C 
ATOM    112  CG  GLU A  14       6.967 -13.260  -7.007  1.00  0.00    +0.116 C 
ATOM    113  CD  GLU A  14       8.482 -13.368  -7.078  1.00  0.00    +0.365 C 
ATOM    114  OE1 GLU A  14       9.063 -14.215  -6.368  1.00  0.00    -0.246 OA
ATOM    115  OE2 GLU A  14       9.091 -12.596  -7.851  1.00  0.00    -0.246 OA
ATOM    116  N   SER A  15       7.741 -11.380  -4.199  1.00  0.00    -0.194 N 
ATOM    117  CA  SER A  15       8.792 -10.424  -4.535  1.00  0.00    +0.205 C 
ATOM    118  C   SER A  15       9.577 -10.874  -5.756  1.00  0.00    +0.264 C 
ATOM    119  O   SER A  15       9.824 -12.066  -5.935  1.00  0.00    -0.271 OA
ATOM    120  CB  SER A  15       9.741 -10.237  -3.362  1.00  0.00    +0.213 C 
ATOM    121  OG  SER A  15      10.487 -11.417  -3.126  1.00  0.00    -0.218 OA
ATOM    122  N   SER A  16       9.969  -9.922  -6.597  1.00  0.00    -0.194 N 
ATOM    123  CA  SER A  16      11.379  -9.576  -6.751  1.00  0.00    +0.205 C 
ATOM    124  C   SER A  16      11.940  -8.971  -5.475  1.00  0.00    +0.264 C 
ATOM    125  O   SER A  16      11.316  -8.101  -4.869  1.00  0.00    -0.271 OA
ATOM    126  CB  SER A  16      11.569  -8.600  -7.900  1.00  0.00    +0.213 C 
ATOM    127  OG  SER A  16      12.945  -8.322  -8.100  1.00  0.00    -0.218 OA
ATOM    128  N   ASP A  17      13.119  -9.429  -5.065  1.00  0.00    -0.196 N 
ATOM    129  CA  ASP A  17      13.508  -9.378  -3.659  1.00  0.00    +0.184 C 
ATOM    130  C   ASP A  17      14.153  -8.044  -3.319  1.00  0.00    +0.262 C 
ATOM    131  O   ASP A  17      14.009  -7.548  -2.203  1.00  0.00    -0.271 OA
ATOM    132  CB  ASP A  17      14.470 -10.506  -3.321  1.00  0.00    +0.145 C 
ATOM    133  CG  ASP A  17      13.809 -11.874  -3.327  1.00  0.00    +0.367 C 
ATOM    134  OD1 ASP A  17      12.567 -11.952  -3.215  1.00  0.00    -0.246 OA
ATOM    135  OD2 ASP A  17      14.538 -12.883  -3.445  1.00  0.00    -0.246 OA
ATOM    136  N   ALA A  18      14.863  -7.462  -4.281  1.00  0.00    -0.196 N 
ATOM    137  CA  ALA A  18      16.201  -6.936  -4.025  1.00  0.00    +0.173 C 
ATOM    138  C   ALA A  18      16.329  -5.503  -4.516  1.00  0.00    +0.262 C 
ATOM    139  O   ALA A  18      15.861  -5.171  -5.604  1.00  0.00    -0.271 OA
ATOM    140  CB  ALA A  18      17.257  -7.799  -4.697  1.00  0.00    +0.033 C 
ATOM    141  N   ILE A  19      16.963  -4.653  -3.713  1.00  0.00    -0.196 N 
ATOM    142  CA  ILE A  19      17.181  -3.262  -4.100  1.00  0.00    +0.176 C 
ATOM    143  C   ILE A  19      18.672  -2.977  -4.167  1.00  0.00    +0.262 C 
ATOM    144  O   ILE A  19      19.432  -3.419  -3.307  1.00  0.00    -0.271 OA
ATOM    145  CB  ILE A  19      16.523  -2.294  -3.130  1.00  0.00    +0.073 C 
ATOM    146  CG1 ILE A  19      15.008  -2.286  -3.318  1.00  0.00    +0.006 C 
ATOM    147  CG2 ILE A  19      17.066  -0.882  -3.338  1.00  0.00    +0.209 C 
ATOM    148  CD1 ILE A  19      14.275  -1.333  -2.389  1.00  0.00    +0.000 C 
ATOM    149  N   ARG A  20      19.094  -2.239  -5.191  1.00  0.00    -0.196 N 
ATOM    150  CA  ARG A  20      19.894  -1.035  -4.982  1.00  0.00    +0.170 C 
ATOM    151  C   ARG A  20      19.031   0.112  -4.481  1.00  0.00    +0.216 C 
ATOM    152  O   ARG A  20      17.890  -0.098  -4.071  1.00  0.00    -0.462 OA
ATOM    153  CB  ARG A  20      20.595  -0.622  -6.264  1.00  0.00    +0.033 C 
ATOM    154  CG  ARG A  20      21.683   0.420  -6.062  1.00  0.00    +0.029 C 
ATOM    155  CD  ARG A  20      21.109   1.763  -5.639  1.00  0.00    +0.128 C 
ATOM    156  NE  ARG A  20      21.282   2.775  -6.677  1.00  0.00    -0.240 NA
ATOM    157  CZ  ARG A  20      21.455   4.073  -6.449  1.00  0.00    +0.237 C 
ATOM    158  NH1 ARG A  20      21.405   4.557  -5.211  1.00  0.00    -0.205 N 
ATOM    159  NH2 ARG A  20      21.680   4.897  -7.469  1.00  0.00    -0.089 N 
ATOM    160  N   ARG A  21      19.575   1.325  -4.513  1.00  0.00    -0.231 NA
ATOM    161  CA  ARG A  21      18.786   2.519  -4.227  1.00  0.00    +0.210 C 
ATOM    162  C   ARG A  21      18.406   3.241  -5.509  1.00  0.00    +0.387 C 
ATOM    163  O   ARG A  21      17.233   3.287  -5.876  1.00  0.00    -0.244 OA
ATOM    164  CB  ARG A  21      19.550   3.468  -3.318  1.00  0.00    +0.060 C 
ATOM    165  CG  ARG A  21      20.493   4.402  -4.060  1.00  0.00    +0.122 C 
ATOM    166  CD  ARG A  21      21.137   5.414  -3.124  1.00  0.00    +0.150 C 
ATOM    167  NE  ARG A  21      21.892   6.423  -3.859  1.00  0.00    -0.232 NA
ATOM    168  CZ  ARG A  21      21.491   7.676  -4.057  1.00  0.00    +0.284 C 
ATOM    169  NH1 ARG A  21      20.650   8.260  -3.208  1.00  0.00    -0.104 N 
ATOM    170  NH2 ARG A  21      21.934   8.349  -5.114  1.00  0.00    -0.104 N 
ATOM    171  OXT ARG A  21      19.267   3.789  -6.197  1.00  0.00    -0.244 OA
ATOM    172  H   MET A   1      10.942   7.732   3.200  1.00  0.00    +0.000 HD
ATOM    173  H   MET A   1      10.612   8.571   4.601  1.00  0.00    +0.000 HD
ATOM    174  H   LYS A   2       7.018   7.180   2.248  1.00  0.00    +0.000 HD
ATOM    175  H   LYS A   2       4.814   3.386   1.915  1.00  0.00    +0.000 HD
ATOM    176  H   LEU A   3       8.273   8.634  -2.028  1.00  0.00    +0.000 HD
ATOM    177  H   ALA A   4       4.567   6.585  -3.884  1.00  0.00    +0.000 HD
ATOM    178  H   VAL A   5       6.517   2.346  -3.825  1.00  0.00    +0.000 HD
ATOM    179  H   PHE A   6       4.458   1.310  -7.479  1.00  0.00    +0.000 HD
ATOM    180  H   ALA A   7       4.414  -0.150 -10.457  1.00  0.00    +0.000 HD
ATOM    181  H   LEU A   8       5.382  -2.607 -10.543  1.00  0.00    +0.000 HD
ATOM    182  H   ARG A   9       4.945  -4.652  -9.121  1.00  0.00    +0.000 HD
ATOM    183  H   ARG A   9       7.489  -3.450  -3.524  1.00  0.00    +0.000 HD
ATOM    184  H   ARG A   9       7.818  -3.971  -1.934  1.00  0.00    +0.000 HD
ATOM    185  H   ARG A   9       6.663  -7.216  -2.431  1.00  0.00    +0.000 HD
ATOM    186  H   ARG A   9       7.345  -6.130  -1.308  1.00  0.00    +0.000 HD
ATOM    187  H   VAL A  10       2.592  -7.044  -9.667  1.00  0.00    +0.000 HD
ATOM    188  H   PHE A  11       2.100  -9.804  -8.109  1.00  0.00    +0.000 HD
ATOM    189  H   PHE A  12       1.300 -11.265  -6.412  1.00  0.00    +0.000 HD
ATOM    190  H   ALA A  13       1.719  -9.933  -2.999  1.00  0.00    +0.000 HD
ATOM    191  H   GLU A  14       4.031 -12.798  -5.906  1.00  0.00    +0.000 HD
ATOM    192  H   GLU A  14       8.566 -14.773  -5.803  1.00  0.00    +0.000 HD
ATOM    193  H   SER A  15       7.852 -11.962  -3.413  1.00  0.00    +0.000 HD
ATOM    194  H   SER A  15       9.882 -12.145  -2.915  1.00  0.00    +0.000 HD
ATOM    195  H   SER A  16       9.294  -9.440  -7.127  1.00  0.00    +0.000 HD
ATOM    196  H   SER A  16      13.413  -9.144  -8.317  1.00  0.00    +0.000 HD
ATOM    197  H   ASP A  17      13.743  -9.811  -5.724  1.00  0.00    +0.000 HD
ATOM    198  H   ASP A  17      12.055 -11.172  -3.129  1.00  0.00    +0.000 HD
ATOM    199  H   ALA A  18      14.479  -7.384  -5.184  1.00  0.00    +0.000 HD
ATOM    200  H   ILE A  19      17.292  -4.968  -2.840  1.00  0.00    +0.000 HD
ATOM    201  H   ARG A  20      18.862  -2.510  -6.109  1.00  0.00    +0.000 HD
ATOM    202  H   ARG A  20      22.155   5.164  -5.015  1.00  0.00    +0.000 HD
ATOM    203  H   ARG A  20      21.718   4.544  -8.387  1.00  0.00    +0.000 HD
ATOM    204  H   ARG A  20      21.808   5.859  -7.305  1.00  0.00    +0.000 HD
ATOM    205  H   ARG A  21      16.565   2.875  -5.364  1.00  0.00    +0.000 HD
ATOM    206  H   ARG A  21      20.359   9.188  -3.363  1.00  0.00    +0.000 HD
ATOM    207  H   ARG A  21      20.318   7.765  -2.424  1.00  0.00    +0.000 HD
ATOM    208  H   ARG A  21      22.557   7.920  -5.745  1.00  0.00    +0.000 HD
ATOM    209  H   ARG A  21      21.640   9.276  -5.266  1.00  0.00    +0.000 HD
ENDROOT
TORSDOF 0
