REMARK  Name = /var/folders/yp/yjbh3p597675h2qddgqr02y00000gn/T/tmpwzxqi9nx.pdb
REMARK     285 UNITARY VALUES FOR THE UNIT CELL AUTOMATICALLY SET
REMARK     285 BY MDANALYSIS PDBWRITER BECAUSE UNIT CELL INFORMATION
REMARK     285 WAS MISSING.
REMARK     285 PROTEIN DATA BANK CONVENTIONS REQUIRE THAT
REMARK     285 CRYST1 RECORD IS INCLUDED, BUT THE VALUES ON
REMARK     285 THIS RECORD ARE MEANINGLESS.
REMARK     285 UNITARY VALUES FOR THE UNIT CELL AUTOMATICALLY SET
REMARK     285 BY MDANALYSIS PDBWRITER BECAUSE UNIT CELL INFORMATION
REMARK     285 WAS MISSING.
REMARK     285 PROTEIN DATA BANK CONVENTIONS REQUIRE THAT
REMARK     285 CRYST1 RECORD IS INCLUDED, BUT THE VALUES ON
REMARK     285 THIS RECORD ARE MEANINGLESS.
REMARK                            x       y       z     vdW  Elec       q    Type
REMARK                         _______ _______ _______ _____ _____    ______ ____
ROOT
ATOM      1  N   MET A   1      19.662  10.481   0.522  1.00  0.00    -0.123 NA
ATOM      2  CA  MET A   1      20.184   9.256  -0.078  1.00  0.00    +0.170 C 
ATOM      3  C   MET A   1      20.317   8.155   0.963  1.00  0.00    +0.259 C 
ATOM      4  O   MET A   1      20.598   8.428   2.129  1.00  0.00    -0.272 OA
ATOM      5  CB  MET A   1      21.536   9.504  -0.728  1.00  0.00    +0.040 C 
ATOM      6  CG  MET A   1      21.556  10.714  -1.648  1.00  0.00    +0.060 C 
ATOM      7  SD  MET A   1      20.151  10.748  -2.789  1.00  0.00    -0.139 S 
ATOM      8  CE  MET A   1      20.641  12.083  -3.875  1.00  0.00    +0.069 C 
ATOM      9  N   LYS A   2      20.115   6.909   0.542  1.00  0.00    -0.197 N 
ATOM     10  CA  LYS A   2      19.905   5.815   1.485  1.00  0.00    +0.173 C 
ATOM     11  C   LYS A   2      21.222   5.347   2.082  1.00  0.00    +0.262 C 
ATOM     12  O   LYS A   2      22.261   5.413   1.427  1.00  0.00    -0.271 OA
ATOM     13  CB  LYS A   2      19.211   4.644   0.807  1.00  0.00    +0.031 C 
ATOM     14  CG  LYS A   2      17.794   4.950   0.349  1.00  0.00    +0.009 C 
ATOM     15  CD  LYS A   2      16.900   5.356   1.509  1.00  0.00    +0.049 C 
ATOM     16  CE  LYS A   2      17.208   6.702   1.982  1.00  0.00    +0.096 C 
ATOM     17  NZ  LYS A   2      17.097   7.807   1.250  1.00  0.00    -0.151 NA
ATOM     18  N   LEU A   3      21.179   4.876   3.325  1.00  0.00    -0.196 N 
ATOM     19  CA  LEU A   3      21.750   3.575   3.664  1.00  0.00    +0.173 C 
ATOM     20  C   LEU A   3      20.783   2.453   3.320  1.00  0.00    +0.262 C 
ATOM     21  O   LEU A   3      19.577   2.588   3.515  1.00  0.00    -0.271 OA
ATOM     22  CB  LEU A   3      22.099   3.509   5.142  1.00  0.00    +0.031 C 
ATOM     23  CG  LEU A   3      23.576   3.688   5.494  1.00  0.00    +0.002 C 
ATOM     24  CD1 LEU A   3      23.737   4.748   6.577  1.00  0.00    +0.000 C 
ATOM     25  CD2 LEU A   3      24.314   4.398   4.364  1.00  0.00    +0.000 C 
ATOM     26  N   ALA A   4      21.312   1.346   2.808  1.00  0.00    -0.196 N 
ATOM     27  CA  ALA A   4      20.566   0.093   2.771  1.00  0.00    +0.173 C 
ATOM     28  C   ALA A   4      20.356  -0.462   4.170  1.00  0.00    +0.262 C 
ATOM     29  O   ALA A   4      21.202  -0.285   5.045  1.00  0.00    -0.271 OA
ATOM     30  CB  ALA A   4      21.284  -0.940   1.917  1.00  0.00    +0.033 C 
ATOM     31  N   VAL A   5      19.229  -1.136   4.383  1.00  0.00    -0.196 N 
ATOM     32  CA  VAL A   5      19.141  -2.161   5.419  1.00  0.00    +0.173 C 
ATOM     33  C   VAL A   5      18.865  -3.513   4.781  1.00  0.00    +0.262 C 
ATOM     34  O   VAL A   5      17.894  -3.670   4.044  1.00  0.00    -0.271 OA
ATOM     35  CB  VAL A   5      18.055  -1.849   6.435  1.00  0.00    +0.029 C 
ATOM     36  CG1 VAL A   5      18.258  -2.664   7.710  1.00  0.00    +0.002 C 
ATOM     37  CG2 VAL A   5      18.087  -0.369   6.812  1.00  0.00    +0.002 C 
ATOM     38  N   PHE A   6      19.720  -4.491   5.065  1.00  0.00    -0.196 N 
ATOM     39  CA  PHE A   6      19.289  -5.885   5.122  1.00  0.00    +0.177 C 
ATOM     40  C   PHE A   6      18.559  -6.171   6.423  1.00  0.00    +0.262 C 
ATOM     41  O   PHE A   6      19.003  -5.758   7.493  1.00  0.00    -0.271 OA
ATOM     42  CB  PHE A   6      20.477  -6.826   4.989  1.00  0.00    +0.057 C 
ATOM     43  CG  PHE A   6      21.586  -6.540   5.958  1.00  0.00    -0.020 A 
ATOM     44  CD1 PHE A   6      21.352  -6.614   7.326  1.00  0.00    -0.004 A 
ATOM     45  CE1 PHE A   6      22.380  -6.350   8.223  1.00  0.00    -0.000 A 
ATOM     46  CD2 PHE A   6      22.849  -6.202   5.487  1.00  0.00    -0.004 A 
ATOM     47  CE2 PHE A   6      23.879  -5.939   6.384  1.00  0.00    -0.000 A 
ATOM     48  CZ  PHE A   6      23.644  -6.012   7.752  1.00  0.00    -0.000 A 
ATOM     49  N   ALA A   7      17.436  -6.879   6.333  1.00  0.00    -0.196 N 
ATOM     50  CA  ALA A   7      16.948  -7.677   7.455  1.00  0.00    +0.173 C 
ATOM     51  C   ALA A   7      17.820  -8.904   7.673  1.00  0.00    +0.262 C 
ATOM     52  O   ALA A   7      18.666  -8.916   8.567  1.00  0.00    -0.271 OA
ATOM     53  CB  ALA A   7      15.510  -8.110   7.222  1.00  0.00    +0.033 C 
ATOM     54  N   LEU A   8      17.615  -9.934   6.858  1.00  0.00    -0.196 N 
ATOM     55  CA  LEU A   8      18.621 -10.977   6.684  1.00  0.00    +0.177 C 
ATOM     56  C   LEU A   8      19.464 -10.718   5.446  1.00  0.00    +0.262 C 
ATOM     57  O   LEU A   8      18.927 -10.452   4.370  1.00  0.00    -0.271 OA
ATOM     58  CB  LEU A   8      17.964 -12.345   6.574  1.00  0.00    +0.051 C 
ATOM     59  CG  LEU A   8      17.512 -12.982   7.890  1.00  0.00    +0.012 C 
ATOM     60  CD1 LEU A   8      16.437 -14.029   7.627  1.00  0.00    +0.001 C 
ATOM     61  CD2 LEU A   8      16.682 -11.996   8.705  1.00  0.00    +0.001 C 
ATOM     62  N   ARG A   9      20.783 -10.796   5.596  1.00  0.00    -0.200 N 
ATOM     63  CA  ARG A   9      21.525 -11.985   5.191  1.00  0.00    +0.153 C 
ATOM     64  C   ARG A   9      21.476 -13.051   6.273  1.00  0.00    +0.261 C 
ATOM     65  O   ARG A   9      21.128 -14.200   6.004  1.00  0.00    -0.461 OA
ATOM     66  CB  ARG A   9      22.973 -11.642   4.883  1.00  0.00    +0.029 C 
ATOM     67  CG  ARG A   9      23.803 -11.319   6.115  1.00  0.00    +0.028 C 
ATOM     68  CD  ARG A   9      25.173 -10.774   5.745  1.00  0.00    +0.129 C 
ATOM     69  NE  ARG A   9      25.819 -10.122   6.881  1.00  0.00    -0.234 NA
ATOM     70  CZ  ARG A   9      27.103 -10.254   7.201  1.00  0.00    +0.284 C 
ATOM     71  NH1 ARG A   9      27.782  -9.234   7.716  1.00  0.00    -0.104 N 
ATOM     72  NH2 ARG A   9      27.712 -11.419   7.004  1.00  0.00    -0.104 N 
ATOM     73  N   VAL A  10      21.824 -12.672   7.499  1.00  0.00    -0.171 NA
ATOM     74  CA  VAL A  10      23.228 -12.554   7.888  1.00  0.00    +0.154 C 
ATOM     75  C   VAL A  10      23.710 -13.867   8.482  1.00  0.00    +0.258 C 
ATOM     76  O   VAL A  10      24.638 -14.485   7.963  1.00  0.00    -0.272 OA
ATOM     77  CB  VAL A  10      23.445 -11.432   8.890  1.00  0.00    +0.025 C 
ATOM     78  CG1 VAL A  10      24.689 -10.622   8.531  1.00  0.00    +0.002 C 
ATOM     79  CG2 VAL A  10      22.249 -10.483   8.896  1.00  0.00    +0.002 C 
ATOM     80  N   PHE A  11      23.080 -14.293   9.573  1.00  0.00    -0.196 N 
ATOM     81  CA  PHE A  11      22.698 -15.694   9.729  1.00  0.00    +0.177 C 
ATOM     82  C   PHE A  11      21.458 -16.009   8.910  1.00  0.00    +0.262 C 
ATOM     83  O   PHE A  11      21.515 -16.799   7.968  1.00  0.00    -0.271 OA
ATOM     84  CB  PHE A  11      22.437 -16.025  11.190  1.00  0.00    +0.057 C 
ATOM     85  CG  PHE A  11      22.897 -17.394  11.594  1.00  0.00    -0.020 A 
ATOM     86  CD1 PHE A  11      22.148 -18.511  11.241  1.00  0.00    -0.004 A 
ATOM     87  CE1 PHE A  11      22.574 -19.781  11.614  1.00  0.00    -0.000 A 
ATOM     88  CD2 PHE A  11      24.073 -17.547  12.318  1.00  0.00    -0.004 A 
ATOM     89  CE2 PHE A  11      24.500 -18.816  12.691  1.00  0.00    -0.000 A 
ATOM     90  CZ  PHE A  11      23.751 -19.933  12.339  1.00  0.00    -0.000 A 
ATOM     91  N   PHE A  12      20.334 -15.394   9.267  1.00  0.00    -0.196 N 
ATOM     92  CA  PHE A  12      20.209 -13.941   9.200  1.00  0.00    +0.177 C 
ATOM     93  C   PHE A  12      20.003 -13.353  10.585  1.00  0.00    +0.262 C 
ATOM     94  O   PHE A  12      20.416 -12.225  10.853  1.00  0.00    -0.271 OA
ATOM     95  CB  PHE A  12      19.051 -13.538   8.300  1.00  0.00    +0.054 C 
ATOM     96  CG  PHE A  12      19.212 -13.973   6.873  1.00  0.00    +0.010 A 
ATOM     97  CD1 PHE A  12      19.743 -15.224   6.583  1.00  0.00    +0.136 A 
ATOM     98  CE1 PHE A  12      19.891 -15.627   5.260  1.00  0.00    +0.037 A 
ATOM     99  CD2 PHE A  12      18.831 -13.123   5.842  1.00  0.00    -0.021 A 
ATOM    100  CE2 PHE A  12      18.980 -13.525   4.519  1.00  0.00    -0.004 A 
ATOM    101  CZ  PHE A  12      19.511 -14.777   4.229  1.00  0.00    +0.003 A 
ATOM    102  N   ALA A  13      19.365 -14.116  11.469  1.00  0.00    -0.196 N 
ATOM    103  CA  ALA A  13      19.169 -13.679  12.848  1.00  0.00    +0.173 C 
ATOM    104  C   ALA A  13      19.981 -14.531  13.811  1.00  0.00    +0.262 C 
ATOM    105  O   ALA A  13      20.221 -15.709  13.553  1.00  0.00    -0.271 OA
ATOM    106  CB  ALA A  13      17.700 -13.742  13.231  1.00  0.00    +0.033 C 
ATOM    107  N   GLU A  14      20.406 -13.934  14.922  1.00  0.00    -0.196 N 
ATOM    108  CA  GLU A  14      19.758 -14.175  16.208  1.00  0.00    +0.173 C 
ATOM    109  C   GLU A  14      18.407 -13.483  16.281  1.00  0.00    +0.262 C 
ATOM    110  O   GLU A  14      18.232 -12.396  15.733  1.00  0.00    -0.271 OA
ATOM    111  CB  GLU A  14      20.636 -13.698  17.355  1.00  0.00    +0.043 C 
ATOM    112  CG  GLU A  14      20.069 -14.003  18.732  1.00  0.00    +0.116 C 
ATOM    113  CD  GLU A  14      20.744 -13.222  19.846  1.00  0.00    +0.365 C 
ATOM    114  OE1 GLU A  14      21.955 -12.930  19.735  1.00  0.00    -0.246 OA
ATOM    115  OE2 GLU A  14      20.057 -12.899  20.839  1.00  0.00    -0.246 OA
ATOM    116  N   SER A  15      17.452 -14.112  16.960  1.00  0.00    -0.194 N 
ATOM    117  CA  SER A  15      16.379 -13.374  17.621  1.00  0.00    +0.205 C 
ATOM    118  C   SER A  15      16.747 -13.031  19.056  1.00  0.00    +0.264 C 
ATOM    119  O   SER A  15      17.428 -13.805  19.727  1.00  0.00    -0.271 OA
ATOM    120  CB  SER A  15      15.088 -14.175  17.606  1.00  0.00    +0.213 C 
ATOM    121  OG  SER A  15      15.132 -15.217  18.566  1.00  0.00    -0.218 OA
ATOM    122  N   SER A  16      16.299 -11.870  19.526  1.00  0.00    -0.194 N 
ATOM    123  CA  SER A  16      15.346 -11.815  20.631  1.00  0.00    +0.205 C 
ATOM    124  C   SER A  16      13.988 -12.358  20.217  1.00  0.00    +0.264 C 
ATOM    125  O   SER A  16      13.620 -12.293  19.045  1.00  0.00    -0.271 OA
ATOM    126  CB  SER A  16      15.190 -10.389  21.134  1.00  0.00    +0.213 C 
ATOM    127  OG  SER A  16      14.711  -9.543  20.104  1.00  0.00    -0.218 OA
ATOM    128  N   ASP A  17      13.243 -12.896  21.178  1.00  0.00    -0.196 N 
ATOM    129  CA  ASP A  17      11.903 -12.397  21.470  1.00  0.00    +0.184 C 
ATOM    130  C   ASP A  17      11.930 -11.404  22.620  1.00  0.00    +0.262 C 
ATOM    131  O   ASP A  17      10.880 -11.001  23.121  1.00  0.00    -0.271 OA
ATOM    132  CB  ASP A  17      10.960 -13.542  21.810  1.00  0.00    +0.145 C 
ATOM    133  CG  ASP A  17      11.044 -14.695  20.823  1.00  0.00    +0.367 C 
ATOM    134  OD1 ASP A  17      11.171 -14.446  19.605  1.00  0.00    -0.246 OA
ATOM    135  OD2 ASP A  17      10.979 -15.859  21.269  1.00  0.00    -0.246 OA
ATOM    136  N   ALA A  18      13.128 -11.009  23.039  1.00  0.00    -0.196 N 
ATOM    137  CA  ALA A  18      13.316 -10.428  24.365  1.00  0.00    +0.173 C 
ATOM    138  C   ALA A  18      14.214  -9.202  24.303  1.00  0.00    +0.262 C 
ATOM    139  O   ALA A  18      15.026  -9.069  23.389  1.00  0.00    -0.271 OA
ATOM    140  CB  ALA A  18      13.914 -11.448  25.321  1.00  0.00    +0.033 C 
ATOM    141  N   ILE A  19      14.070  -8.307  25.275  1.00  0.00    -0.196 N 
ATOM    142  CA  ILE A  19      15.189  -7.483  25.722  1.00  0.00    +0.173 C 
ATOM    143  C   ILE A  19      15.602  -7.899  27.125  1.00  0.00    +0.262 C 
ATOM    144  O   ILE A  19      14.793  -8.426  27.885  1.00  0.00    -0.271 OA
ATOM    145  CB  ILE A  19      14.845  -6.004  25.712  1.00  0.00    +0.029 C 
ATOM    146  CG1 ILE A  19      13.660  -5.718  26.632  1.00  0.00    +0.002 C 
ATOM    147  CG2 ILE A  19      14.507  -5.546  24.294  1.00  0.00    +0.002 C 
ATOM    148  CD1 ILE A  19      13.466  -4.245  26.950  1.00  0.00    +0.000 C 
ATOM    149  N   ARG A  20      16.865  -7.659  27.470  1.00  0.00    -0.196 N 
ATOM    150  CA  ARG A  20      17.283  -7.653  28.868  1.00  0.00    +0.173 C 
ATOM    151  C   ARG A  20      16.840  -6.374  29.562  1.00  0.00    +0.262 C 
ATOM    152  O   ARG A  20      17.157  -5.276  29.109  1.00  0.00    -0.271 OA
ATOM    153  CB  ARG A  20      18.790  -7.798  28.985  1.00  0.00    +0.033 C 
ATOM    154  CG  ARG A  20      19.557  -6.524  28.667  1.00  0.00    +0.029 C 
ATOM    155  CD  ARG A  20      20.840  -6.421  29.474  1.00  0.00    +0.129 C 
ATOM    156  NE  ARG A  20      22.001  -6.850  28.699  1.00  0.00    -0.234 NA
ATOM    157  CZ  ARG A  20      22.813  -6.034  28.035  1.00  0.00    +0.284 C 
ATOM    158  NH1 ARG A  20      22.657  -4.715  28.107  1.00  0.00    -0.104 N 
ATOM    159  NH2 ARG A  20      23.792  -6.542  27.290  1.00  0.00    -0.104 N 
ATOM    160  N   ARG A  21      16.108  -6.515  30.663  1.00  0.00    -0.194 N 
ATOM    161  CA  ARG A  21      15.866  -5.393  31.564  1.00  0.00    +0.198 C 
ATOM    162  C   ARG A  21      16.743  -5.489  32.801  1.00  0.00    +0.384 C 
ATOM    163  O   ARG A  21      17.638  -4.668  32.998  1.00  0.00    -0.244 OA
ATOM    164  CB  ARG A  21      14.405  -5.337  31.982  1.00  0.00    +0.035 C 
ATOM    165  CG  ARG A  21      13.493  -4.706  30.943  1.00  0.00    +0.029 C 
ATOM    166  CD  ARG A  21      12.026  -4.854  31.313  1.00  0.00    +0.129 C 
ATOM    167  NE  ARG A  21      11.275  -5.548  30.272  1.00  0.00    -0.234 NA
ATOM    168  CZ  ARG A  21      10.371  -4.978  29.480  1.00  0.00    +0.284 C 
ATOM    169  NH1 ARG A  21       9.798  -3.830  29.824  1.00  0.00    -0.104 N 
ATOM    170  NH2 ARG A  21      10.040  -5.564  28.332  1.00  0.00    -0.104 N 
ATOM    171  OXT ARG A  21      16.570  -6.387  33.624  1.00  0.00    -0.244 OA
ATOM    172  H   MET A   1      18.757  10.291   0.951  1.00  0.00    +0.000 HD
ATOM    173  H   MET A   1      19.553  11.193  -0.201  1.00  0.00    +0.000 HD
ATOM    174  H   LYS A   2      20.107   6.721  -0.424  1.00  0.00    +0.000 HD
ATOM    175  H   LYS A   2      16.788   7.750   0.318  1.00  0.00    +0.000 HD
ATOM    176  H   LEU A   3      20.754   5.414   4.030  1.00  0.00    +0.000 HD
ATOM    177  H   ALA A   4      22.229   1.372   2.447  1.00  0.00    +0.000 HD
ATOM    178  H   VAL A   5      18.439  -0.940   3.831  1.00  0.00    +0.000 HD
ATOM    179  H   PHE A   6      20.664  -4.270   5.240  1.00  0.00    +0.000 HD
ATOM    180  H   ALA A   7      16.923  -6.864   5.493  1.00  0.00    +0.000 HD
ATOM    181  H   LEU A   8      16.767  -9.995   6.362  1.00  0.00    +0.000 HD
ATOM    182  H   ARG A   9      21.269 -10.034   5.987  1.00  0.00    +0.000 HD
ATOM    183  H   ARG A   9      27.335  -8.369   7.865  1.00  0.00    +0.000 HD
ATOM    184  H   ARG A   9      28.732  -9.344   7.950  1.00  0.00    +0.000 HD
ATOM    185  H   ARG A   9      27.213 -12.177   6.623  1.00  0.00    +0.000 HD
ATOM    186  H   ARG A   9      28.663 -11.523   7.239  1.00  0.00    +0.000 HD
ATOM    187  H   VAL A  10      21.403 -13.346   8.140  1.00  0.00    +0.000 HD
ATOM    188  H   PHE A  11      22.867 -13.652  10.289  1.00  0.00    +0.000 HD
ATOM    189  H   PHE A  12      19.572 -15.929   9.585  1.00  0.00    +0.000 HD
ATOM    190  H   ALA A  13      19.018 -14.992  11.188  1.00  0.00    +0.000 HD
ATOM    191  H   GLU A  14      21.172 -13.317  14.875  1.00  0.00    +0.000 HD
ATOM    192  H   GLU A  14      22.433 -13.193  18.973  1.00  0.00    +0.000 HD
ATOM    193  H   SER A  15      17.469 -15.094  17.019  1.00  0.00    +0.000 HD
ATOM    194  H   SER A  15      15.246 -14.837  19.451  1.00  0.00    +0.000 HD
ATOM    195  H   SER A  16      16.617 -11.031  19.121  1.00  0.00    +0.000 HD
ATOM    196  H   SER A  16      13.844  -9.857  19.804  1.00  0.00    +0.000 HD
ATOM    197  H   ASP A  17      13.603 -13.647  21.704  1.00  0.00    +0.000 HD
ATOM    198  H   ASP A  17      10.883 -16.003  22.190  1.00  0.00    +0.000 HD
ATOM    199  H   ALA A  18      13.904 -11.110  22.443  1.00  0.00    +0.000 HD
ATOM    200  H   ILE A  19      13.189  -8.198  25.702  1.00  0.00    +0.000 HD
ATOM    201  H   ARG A  20      17.532  -7.482  26.767  1.00  0.00    +0.000 HD
ATOM    202  H   ARG A  20      21.934  -4.334  28.656  1.00  0.00    +0.000 HD
ATOM    203  H   ARG A  20      23.264  -4.119  27.611  1.00  0.00    +0.000 HD
ATOM    204  H   ARG A  20      23.912  -7.517  27.234  1.00  0.00    +0.000 HD
ATOM    205  H   ARG A  20      24.397  -5.941  26.797  1.00  0.00    +0.000 HD
ATOM    206  H   ARG A  21      15.721  -7.396  30.875  1.00  0.00    +0.000 HD
ATOM    207  H   ARG A  21      17.784  -3.977  32.382  1.00  0.00    +0.000 HD
ATOM    208  H   ARG A  21       9.130  -3.415  29.231  1.00  0.00    +0.000 HD
ATOM    209  H   ARG A  21      10.041  -3.393  30.672  1.00  0.00    +0.000 HD
ATOM    210  H   ARG A  21       9.371  -5.148  27.741  1.00  0.00    +0.000 HD
ATOM    211  H   ARG A  21      10.463  -6.415  28.074  1.00  0.00    +0.000 HD
ENDROOT
TORSDOF 0
