REMARK  Name = /var/folders/yp/yjbh3p597675h2qddgqr02y00000gn/T/tmpcjwbx6jr.pdb
REMARK     285 UNITARY VALUES FOR THE UNIT CELL AUTOMATICALLY SET
REMARK     285 BY MDANALYSIS PDBWRITER BECAUSE UNIT CELL INFORMATION
REMARK     285 WAS MISSING.
REMARK     285 PROTEIN DATA BANK CONVENTIONS REQUIRE THAT
REMARK     285 CRYST1 RECORD IS INCLUDED, BUT THE VALUES ON
REMARK     285 THIS RECORD ARE MEANINGLESS.
REMARK     285 UNITARY VALUES FOR THE UNIT CELL AUTOMATICALLY SET
REMARK     285 BY MDANALYSIS PDBWRITER BECAUSE UNIT CELL INFORMATION
REMARK     285 WAS MISSING.
REMARK     285 PROTEIN DATA BANK CONVENTIONS REQUIRE THAT
REMARK     285 CRYST1 RECORD IS INCLUDED, BUT THE VALUES ON
REMARK     285 THIS RECORD ARE MEANINGLESS.
REMARK                            x       y       z     vdW  Elec       q    Type
REMARK                         _______ _______ _______ _____ _____    ______ ____
REMARK  Name = /var/folders/yp/yjbh3p597675h2qddgqr02y00000gn/T/tmpcjwbx6jr.pdb
REMARK     285 UNITARY VALUES FOR THE UNIT CELL AUTOMATICALLY SET
REMARK     285 BY MDANALYSIS PDBWRITER BECAUSE UNIT CELL INFORMATION
REMARK     285 WAS MISSING.
REMARK     285 PROTEIN DATA BANK CONVENTIONS REQUIRE THAT
REMARK     285 CRYST1 RECORD IS INCLUDED, BUT THE VALUES ON
REMARK     285 THIS RECORD ARE MEANINGLESS.
REMARK     285 UNITARY VALUES FOR THE UNIT CELL AUTOMATICALLY SET
REMARK     285 BY MDANALYSIS PDBWRITER BECAUSE UNIT CELL INFORMATION
REMARK     285 WAS MISSING.
REMARK     285 PROTEIN DATA BANK CONVENTIONS REQUIRE THAT
REMARK     285 CRYST1 RECORD IS INCLUDED, BUT THE VALUES ON
REMARK     285 THIS RECORD ARE MEANINGLESS.
REMARK                            x       y       z     vdW  Elec       q    Type
REMARK                         _______ _______ _______ _____ _____    ______ ____
REMARK  Name = /var/folders/yp/yjbh3p597675h2qddgqr02y00000gn/T/tmpcjwbx6jr.pdb
REMARK     285 UNITARY VALUES FOR THE UNIT CELL AUTOMATICALLY SET
REMARK     285 BY MDANALYSIS PDBWRITER BECAUSE UNIT CELL INFORMATION
REMARK     285 WAS MISSING.
REMARK     285 PROTEIN DATA BANK CONVENTIONS REQUIRE THAT
REMARK     285 CRYST1 RECORD IS INCLUDED, BUT THE VALUES ON
REMARK     285 THIS RECORD ARE MEANINGLESS.
REMARK     285 UNITARY VALUES FOR THE UNIT CELL AUTOMATICALLY SET
REMARK     285 BY MDANALYSIS PDBWRITER BECAUSE UNIT CELL INFORMATION
REMARK     285 WAS MISSING.
REMARK     285 PROTEIN DATA BANK CONVENTIONS REQUIRE THAT
REMARK     285 CRYST1 RECORD IS INCLUDED, BUT THE VALUES ON
REMARK     285 THIS RECORD ARE MEANINGLESS.
REMARK                            x       y       z     vdW  Elec       q    Type
REMARK                         _______ _______ _______ _____ _____    ______ ____
REMARK  Name = /var/folders/yp/yjbh3p597675h2qddgqr02y00000gn/T/tmpcjwbx6jr.pdb
REMARK     285 UNITARY VALUES FOR THE UNIT CELL AUTOMATICALLY SET
REMARK     285 BY MDANALYSIS PDBWRITER BECAUSE UNIT CELL INFORMATION
REMARK     285 WAS MISSING.
REMARK     285 PROTEIN DATA BANK CONVENTIONS REQUIRE THAT
REMARK     285 CRYST1 RECORD IS INCLUDED, BUT THE VALUES ON
REMARK     285 THIS RECORD ARE MEANINGLESS.
REMARK     285 UNITARY VALUES FOR THE UNIT CELL AUTOMATICALLY SET
REMARK     285 BY MDANALYSIS PDBWRITER BECAUSE UNIT CELL INFORMATION
REMARK     285 WAS MISSING.
REMARK     285 PROTEIN DATA BANK CONVENTIONS REQUIRE THAT
REMARK     285 CRYST1 RECORD IS INCLUDED, BUT THE VALUES ON
REMARK     285 THIS RECORD ARE MEANINGLESS.
REMARK                            x       y       z     vdW  Elec       q    Type
REMARK                         _______ _______ _______ _____ _____    ______ ____
ROOT
ATOM      1  N   MET A   1     -11.469 -39.170   2.227  1.00  0.00    -0.123 NA
ATOM      2  CA  MET A   1     -12.104 -37.928   1.797  1.00  0.00    +0.170 C 
ATOM      3  C   MET A   1     -13.139 -37.468   2.811  1.00  0.00    +0.259 C 
ATOM      4  O   MET A   1     -13.830 -38.287   3.414  1.00  0.00    -0.272 OA
ATOM      5  CB  MET A   1     -12.765 -38.098   0.440  1.00  0.00    +0.040 C 
ATOM      6  CG  MET A   1     -13.339 -36.809  -0.125  1.00  0.00    +0.060 C 
ATOM      7  SD  MET A   1     -13.992 -37.011  -1.801  1.00  0.00    -0.139 S 
ATOM      8  CE  MET A   1     -12.542 -37.634  -2.646  1.00  0.00    +0.069 C 
ATOM      9  N   LYS A   2     -13.247 -36.156   2.999  1.00  0.00    -0.197 N 
ATOM     10  CA  LYS A   2     -14.046 -35.608   4.091  1.00  0.00    +0.173 C 
ATOM     11  C   LYS A   2     -15.525 -35.610   3.742  1.00  0.00    +0.262 C 
ATOM     12  O   LYS A   2     -15.897 -35.330   2.604  1.00  0.00    -0.271 OA
ATOM     13  CB  LYS A   2     -13.607 -34.192   4.426  1.00  0.00    +0.031 C 
ATOM     14  CG  LYS A   2     -12.602 -34.113   5.563  1.00  0.00    +0.003 C 
ATOM     15  CD  LYS A   2     -11.886 -32.772   5.594  1.00  0.00    -0.002 C 
ATOM     16  CE  LYS A   2     -12.785 -31.672   5.257  1.00  0.00    -0.000 C 
ATOM     17  NZ  LYS A   2     -12.399 -30.507   4.746  1.00  0.00    +0.447 N 
ATOM     18  N   LEU A   3     -16.368 -35.927   4.721  1.00  0.00    -0.196 N 
ATOM     19  CA  LEU A   3     -17.633 -35.217   4.894  1.00  0.00    +0.173 C 
ATOM     20  C   LEU A   3     -17.416 -33.891   5.605  1.00  0.00    +0.262 C 
ATOM     21  O   LEU A   3     -16.603 -33.802   6.525  1.00  0.00    -0.271 OA
ATOM     22  CB  LEU A   3     -18.620 -36.060   5.683  1.00  0.00    +0.031 C 
ATOM     23  CG  LEU A   3     -19.172 -37.295   4.969  1.00  0.00    +0.002 C 
ATOM     24  CD1 LEU A   3     -20.660 -37.453   5.262  1.00  0.00    +0.000 C 
ATOM     25  CD2 LEU A   3     -18.668 -38.571   5.635  1.00  0.00    +0.000 C 
ATOM     26  N   ALA A   4     -18.140 -32.860   5.180  1.00  0.00    -0.196 N 
ATOM     27  CA  ALA A   4     -18.243 -31.629   5.959  1.00  0.00    +0.173 C 
ATOM     28  C   ALA A   4     -18.810 -31.904   7.342  1.00  0.00    +0.262 C 
ATOM     29  O   ALA A   4     -19.629 -32.805   7.515  1.00  0.00    -0.271 OA
ATOM     30  CB  ALA A   4     -19.115 -30.610   5.245  1.00  0.00    +0.033 C 
ATOM     31  N   VAL A   5     -18.375 -31.125   8.329  1.00  0.00    -0.196 N 
ATOM     32  CA  VAL A   5     -17.382 -30.083   8.093  1.00  0.00    +0.173 C 
ATOM     33  C   VAL A   5     -16.113 -30.395   8.870  1.00  0.00    +0.262 C 
ATOM     34  O   VAL A   5     -16.174 -30.929   9.977  1.00  0.00    -0.271 OA
ATOM     35  CB  VAL A   5     -17.895 -28.708   8.493  1.00  0.00    +0.029 C 
ATOM     36  CG1 VAL A   5     -17.828 -27.742   7.312  1.00  0.00    +0.002 C 
ATOM     37  CG2 VAL A   5     -19.351 -28.796   8.948  1.00  0.00    +0.002 C 
ATOM     38  N   PHE A   6     -14.963 -30.065   8.290  1.00  0.00    -0.196 N 
ATOM     39  CA  PHE A   6     -13.691 -30.190   8.999  1.00  0.00    +0.177 C 
ATOM     40  C   PHE A   6     -13.586 -29.154  10.106  1.00  0.00    +0.262 C 
ATOM     41  O   PHE A   6     -13.836 -27.972   9.879  1.00  0.00    -0.271 OA
ATOM     42  CB  PHE A   6     -12.521 -30.032   8.042  1.00  0.00    +0.053 C 
ATOM     43  CG  PHE A   6     -12.295 -31.220   7.156  1.00  0.00    -0.048 C 
ATOM     44  CD1 PHE A   6     -13.070 -31.392   6.014  1.00  0.00    +0.007 C 
ATOM     45  CE1 PHE A   6     -12.861 -32.493   5.191  1.00  0.00    -0.014 C 
ATOM     46  CD2 PHE A   6     -11.314 -32.150   7.476  1.00  0.00    -0.035 C 
ATOM     47  CE2 PHE A   6     -11.105 -33.253   6.654  1.00  0.00    +0.025 C 
ATOM     48  CZ  PHE A   6     -11.879 -33.424   5.512  1.00  0.00    +0.004 C 
ATOM     49  N   ALA A   7     -13.217 -29.598  11.304  1.00  0.00    -0.196 N 
ATOM     50  CA  ALA A   7     -12.254 -28.865  12.122  1.00  0.00    +0.173 C 
ATOM     51  C   ALA A   7     -10.854 -28.971  11.545  1.00  0.00    +0.262 C 
ATOM     52  O   ALA A   7     -10.028 -28.080  11.740  1.00  0.00    -0.271 OA
ATOM     53  CB  ALA A   7     -12.256 -29.386  13.551  1.00  0.00    +0.033 C 
ATOM     54  N   LEU A   8     -10.582 -30.063  10.833  1.00  0.00    -0.196 N 
ATOM     55  CA  LEU A   8      -9.214 -30.545  10.672  1.00  0.00    +0.173 C 
ATOM     56  C   LEU A   8      -8.409 -29.605   9.790  1.00  0.00    +0.262 C 
ATOM     57  O   LEU A   8      -7.260 -29.287  10.100  1.00  0.00    -0.271 OA
ATOM     58  CB  LEU A   8      -9.202 -31.941  10.071  1.00  0.00    +0.031 C 
ATOM     59  CG  LEU A   8      -9.734 -33.063  10.963  1.00  0.00    +0.002 C 
ATOM     60  CD1 LEU A   8      -8.617 -34.044  11.302  1.00  0.00    +0.000 C 
ATOM     61  CD2 LEU A   8     -10.635 -34.001  10.168  1.00  0.00    +0.000 C 
ATOM     62  N   ARG A   9      -9.008 -29.159   8.691  1.00  0.00    -0.196 N 
ATOM     63  CA  ARG A   9      -8.323 -29.151   7.401  1.00  0.00    +0.173 C 
ATOM     64  C   ARG A   9      -7.221 -28.105   7.378  1.00  0.00    +0.262 C 
ATOM     65  O   ARG A   9      -6.191 -28.295   6.735  1.00  0.00    -0.271 OA
ATOM     66  CB  ARG A   9      -9.302 -28.882   6.269  1.00  0.00    +0.032 C 
ATOM     67  CG  ARG A   9     -10.234 -30.046   5.974  1.00  0.00    +0.018 C 
ATOM     68  CD  ARG A   9     -10.967 -29.861   4.656  1.00  0.00    +0.059 C 
ATOM     69  NE  ARG A   9     -11.407 -31.138   4.101  1.00  0.00    -0.290 NA
ATOM     70  CZ  ARG A   9     -12.652 -31.411   3.719  1.00  0.00    +0.166 C 
ATOM     71  NH1 ARG A   9     -13.639 -30.553   3.963  1.00  0.00    -0.244 NA
ATOM     72  NH2 ARG A   9     -12.911 -32.551   3.086  1.00  0.00    -0.119 NA
ATOM     73  N   VAL A  10      -7.436 -26.995   8.080  1.00  0.00    -0.196 N 
ATOM     74  CA  VAL A  10      -7.260 -25.674   7.488  1.00  0.00    +0.173 C 
ATOM     75  C   VAL A  10      -5.795 -25.273   7.549  1.00  0.00    +0.262 C 
ATOM     76  O   VAL A  10      -5.370 -24.352   6.855  1.00  0.00    -0.271 OA
ATOM     77  CB  VAL A  10      -8.104 -24.620   8.187  1.00  0.00    +0.029 C 
ATOM     78  CG1 VAL A  10      -9.564 -25.059   8.264  1.00  0.00    +0.002 C 
ATOM     79  CG2 VAL A  10      -7.601 -24.398   9.612  1.00  0.00    +0.002 C 
ATOM     80  N   PHE A  11      -5.022 -25.965   8.382  1.00  0.00    -0.196 N 
ATOM     81  CA  PHE A  11      -3.681 -25.506   8.734  1.00  0.00    +0.177 C 
ATOM     82  C   PHE A  11      -2.692 -25.836   7.629  1.00  0.00    +0.262 C 
ATOM     83  O   PHE A  11      -2.004 -24.951   7.122  1.00  0.00    -0.271 OA
ATOM     84  CB  PHE A  11      -3.216 -26.137  10.036  1.00  0.00    +0.057 C 
ATOM     85  CG  PHE A  11      -2.967 -25.147  11.135  1.00  0.00    -0.020 A 
ATOM     86  CD1 PHE A  11      -2.958 -23.786  10.856  1.00  0.00    -0.004 A 
ATOM     87  CE1 PHE A  11      -2.727 -22.868  11.874  1.00  0.00    -0.000 A 
ATOM     88  CD2 PHE A  11      -2.744 -25.591  12.433  1.00  0.00    -0.004 A 
ATOM     89  CE2 PHE A  11      -2.514 -24.675  13.452  1.00  0.00    -0.000 A 
ATOM     90  CZ  PHE A  11      -2.504 -23.314  13.172  1.00  0.00    -0.000 A 
ATOM     91  N   PHE A  12      -2.618 -27.110   7.254  1.00  0.00    -0.196 N 
ATOM     92  CA  PHE A  12      -1.602 -28.005   7.796  1.00  0.00    +0.177 C 
ATOM     93  C   PHE A  12      -0.371 -28.025   6.905  1.00  0.00    +0.262 C 
ATOM     94  O   PHE A  12       0.713 -28.405   7.344  1.00  0.00    -0.271 OA
ATOM     95  CB  PHE A  12      -2.145 -29.417   7.944  1.00  0.00    +0.057 C 
ATOM     96  CG  PHE A  12      -3.300 -29.526   8.895  1.00  0.00    -0.020 A 
ATOM     97  CD1 PHE A  12      -4.140 -30.633   8.844  1.00  0.00    -0.004 A 
ATOM     98  CE1 PHE A  12      -5.211 -30.734   9.725  1.00  0.00    -0.000 A 
ATOM     99  CD2 PHE A  12      -3.531 -28.520   9.826  1.00  0.00    -0.004 A 
ATOM    100  CE2 PHE A  12      -4.601 -28.621  10.707  1.00  0.00    -0.000 A 
ATOM    101  CZ  PHE A  12      -5.440 -29.728  10.657  1.00  0.00    -0.000 A 
ATOM    102  N   ALA A  13      -0.538 -27.617   5.650  1.00  0.00    -0.196 N 
ATOM    103  CA  ALA A  13       0.137 -28.280   4.537  1.00  0.00    +0.173 C 
ATOM    104  C   ALA A  13       1.642 -28.078   4.613  1.00  0.00    +0.261 C 
ATOM    105  O   ALA A  13       2.111 -27.007   4.995  1.00  0.00    -0.271 OA
ATOM    106  CB  ALA A  13      -0.379 -27.759   3.205  1.00  0.00    +0.033 C 
ATOM    107  N   GLU A  14       2.400 -29.107   4.246  1.00  0.00    -0.202 N 
ATOM    108  CA  GLU A  14       3.533 -28.934   3.342  1.00  0.00    +0.141 C 
ATOM    109  C   GLU A  14       3.081 -28.934   1.890  1.00  0.00    +0.210 C 
ATOM    110  O   GLU A  14       2.144 -29.644   1.528  1.00  0.00    -0.338 OA
ATOM    111  CB  GLU A  14       4.568 -30.027   3.551  1.00  0.00    +0.044 C 
ATOM    112  CG  GLU A  14       5.622 -30.093   2.461  1.00  0.00    +0.085 C 
ATOM    113  N   SER A  15       3.747 -28.138   1.058  1.00  0.00    -0.181 NA
ATOM    114  CA  SER A  15       5.194 -27.974   1.158  1.00  0.00    +0.178 C 
ATOM    115  C   SER A  15       5.579 -27.227   2.425  1.00  0.00    +0.260 C 
ATOM    116  O   SER A  15       4.720 -26.664   3.101  1.00  0.00    -0.272 OA
ATOM    117  CB  SER A  15       5.736 -27.233  -0.054  1.00  0.00    +0.050 C 
ATOM    118  OG  SER A  15       5.513 -25.839   0.069  1.00  0.00    -0.417 OA
ATOM    119  N   SER A  16       6.869 -27.221   2.745  1.00  0.00    -0.194 N 
ATOM    120  CA  SER A  16       7.474 -26.090   3.443  1.00  0.00    +0.205 C 
ATOM    121  C   SER A  16       7.509 -24.853   2.561  1.00  0.00    +0.264 C 
ATOM    122  O   SER A  16       7.617 -23.734   3.061  1.00  0.00    -0.271 OA
ATOM    123  CB  SER A  16       8.885 -26.431   3.895  1.00  0.00    +0.213 C 
ATOM    124  OG  SER A  16       9.690 -26.800   2.789  1.00  0.00    -0.218 OA
ATOM    125  N   ASP A  17       7.420 -25.053   1.249  1.00  0.00    -0.192 N 
ATOM    126  CA  ASP A  17       7.282 -26.396   0.694  1.00  0.00    +0.212 C 
ATOM    127  C   ASP A  17       8.493 -26.763  -0.150  1.00  0.00    +0.265 C 
ATOM    128  O   ASP A  17       8.912 -25.989  -1.008  1.00  0.00    -0.271 OA
ATOM    129  CB  ASP A  17       6.023 -26.508  -0.151  1.00  0.00    +0.201 C 
ATOM    130  CG  ASP A  17       4.927 -25.548   0.286  1.00  0.00    +0.552 C 
ATOM    131  OD1 ASP A  17       4.935 -25.103   1.454  1.00  0.00    -0.200 OA
ATOM    132  OD2 ASP A  17       4.050 -25.235  -0.547  1.00  0.00    -0.200 OA
ATOM    133  N   ALA A  18       9.053 -27.945   0.093  1.00  0.00    -0.204 N 
ATOM    134  CA  ALA A  18       8.277 -29.181   0.026  1.00  0.00    +0.115 C 
ATOM    135  CB  ALA A  18       9.108 -30.307  -0.567  1.00  0.00    +0.025 C 
ATOM    136  N   ILE A  19       6.698 -30.359   1.443  1.00  0.00    -0.211 NA
ATOM    137  CA  ILE A  19       6.429 -31.237   2.578  1.00  0.00    +0.144 C 
ATOM    138  C   ILE A  19       6.785 -32.669   2.215  1.00  0.00    +0.257 C 
ATOM    139  O   ILE A  19       6.738 -33.049   1.046  1.00  0.00    -0.272 OA
ATOM    140  CB  ILE A  19       4.975 -31.173   3.015  1.00  0.00    +0.044 C 
ATOM    141  CG1 ILE A  19       4.043 -31.312   1.813  1.00  0.00    +0.035 C 
ATOM    142  CD1 ILE A  19       2.659 -30.723   2.032  1.00  0.00    +0.144 C 
ATOM    143  N   ARG A  20       7.146 -33.466   3.217  1.00  0.00    -0.197 N 
ATOM    144  CA  ARG A  20       6.515 -34.768   3.416  1.00  0.00    +0.173 C 
ATOM    145  C   ARG A  20       5.298 -34.653   4.319  1.00  0.00    +0.262 C 
ATOM    146  O   ARG A  20       5.411 -34.224   5.466  1.00  0.00    -0.271 OA
ATOM    147  CB  ARG A  20       7.498 -35.761   4.014  1.00  0.00    +0.033 C 
ATOM    148  CG  ARG A  20       7.071 -37.213   3.871  1.00  0.00    +0.029 C 
ATOM    149  CD  ARG A  20       7.445 -37.780   2.511  1.00  0.00    +0.129 C 
ATOM    150  NE  ARG A  20       6.321 -38.472   1.887  1.00  0.00    -0.234 NA
ATOM    151  CZ  ARG A  20       5.899 -39.688   2.221  1.00  0.00    +0.284 C 
ATOM    152  NH1 ARG A  20       4.835 -40.222   1.628  1.00  0.00    -0.104 N 
ATOM    153  NH2 ARG A  20       6.548 -40.375   3.157  1.00  0.00    -0.104 N 
ATOM    154  N   ARG A  21       4.134 -35.036   3.803  1.00  0.00    -0.194 N 
ATOM    155  CA  ARG A  21       3.062 -35.551   4.649  1.00  0.00    +0.198 C 
ATOM    156  C   ARG A  21       3.006 -37.070   4.593  1.00  0.00    +0.384 C 
ATOM    157  O   ARG A  21       2.342 -37.701   5.413  1.00  0.00    -0.244 OA
ATOM    158  CB  ARG A  21       1.718 -34.979   4.229  1.00  0.00    +0.035 C 
ATOM    159  CG  ARG A  21       1.595 -33.478   4.442  1.00  0.00    +0.029 C 
ATOM    160  CD  ARG A  21       1.391 -33.131   5.907  1.00  0.00    +0.129 C 
ATOM    161  NE  ARG A  21       2.624 -33.287   6.674  1.00  0.00    -0.234 NA
ATOM    162  CZ  ARG A  21       2.696 -33.289   8.002  1.00  0.00    +0.284 C 
ATOM    163  NH1 ARG A  21       2.043 -34.204   8.714  1.00  0.00    -0.104 N 
ATOM    164  NH2 ARG A  21       3.428 -32.369   8.623  1.00  0.00    -0.104 N 
ATOM    165  OXT ARG A  21       3.625 -37.687   3.726  1.00  0.00    -0.244 OA
ATOM    166  H   MET A   1     -11.033 -39.032   3.139  1.00  0.00    +0.000 HD
ATOM    167  H   MET A   1     -10.757 -39.441   1.548  1.00  0.00    +0.000 HD
ATOM    168  H   LYS A   2     -12.778 -35.541   2.389  1.00  0.00    +0.000 HD
ATOM    169  H   LEU A   3     -16.135 -36.656   5.342  1.00  0.00    +0.000 HD
ATOM    170  H   ALA A   4     -18.619 -32.929   4.322  1.00  0.00    +0.000 HD
ATOM    171  H   VAL A   5     -18.731 -31.253   9.238  1.00  0.00    +0.000 HD
ATOM    172  H   PHE A   6     -14.968 -29.729   7.365  1.00  0.00    +0.000 HD
ATOM    173  H   ALA A   7     -13.601 -30.438  11.646  1.00  0.00    +0.000 HD
ATOM    174  H   LEU A   8     -11.320 -30.555  10.406  1.00  0.00    +0.000 HD
ATOM    175  H   ARG A   9      -9.933 -28.827   8.747  1.00  0.00    +0.000 HD
ATOM    176  H   ARG A   9     -13.849 -29.812   3.294  1.00  0.00    +0.000 HD
ATOM    177  H   ARG A   9     -12.048 -33.086   2.983  1.00  0.00    +0.000 HD
ATOM    178  H   ARG A   9     -13.298 -32.348   2.165  1.00  0.00    +0.000 HD
ATOM    179  H   VAL A  10      -7.720 -27.068   9.020  1.00  0.00    +0.000 HD
ATOM    180  H   PHE A  11      -5.361 -26.804   8.770  1.00  0.00    +0.000 HD
ATOM    181  H   PHE A  12      -3.264 -27.457   6.596  1.00  0.00    +0.000 HD
ATOM    182  H   ALA A  13      -1.129 -26.851   5.466  1.00  0.00    +0.000 HD
ATOM    183  H   GLU A  14       2.194 -30.005   4.592  1.00  0.00    +0.000 HD
ATOM    184  H   SER A  15       3.342 -27.208   1.164  1.00  0.00    +0.000 HD
ATOM    185  H   SER A  16       7.429 -27.995   2.506  1.00  0.00    +0.000 HD
ATOM    186  H   SER A  16       9.310 -27.582   2.359  1.00  0.00    +0.000 HD
ATOM    187  H   ASP A  17       7.447 -24.280   0.640  1.00  0.00    +0.000 HD
ATOM    188  H   ASP A  17       4.079 -25.591  -1.413  1.00  0.00    +0.000 HD
ATOM    189  H   ALA A  18      10.009 -27.987   0.324  1.00  0.00    +0.000 HD
ATOM    190  H   ILE A  19       6.455 -30.647   0.495  1.00  0.00    +0.000 HD
ATOM    191  H   ARG A  20       7.851 -33.172   3.837  1.00  0.00    +0.000 HD
ATOM    192  H   ARG A  20       4.530 -41.123   1.882  1.00  0.00    +0.000 HD
ATOM    193  H   ARG A  20       4.353 -39.716   0.935  1.00  0.00    +0.000 HD
ATOM    194  H   ARG A  20       6.241 -41.275   3.409  1.00  0.00    +0.000 HD
ATOM    195  H   ARG A  20       7.337 -39.983   3.597  1.00  0.00    +0.000 HD
ATOM    196  H   ARG A  21       3.992 -34.971   2.831  1.00  0.00    +0.000 HD
ATOM    197  H   ARG A  21       2.103 -34.198   9.697  1.00  0.00    +0.000 HD
ATOM    198  H   ARG A  21       1.501 -34.888   8.259  1.00  0.00    +0.000 HD
ATOM    199  H   ARG A  21       3.484 -32.366   9.605  1.00  0.00    +0.000 HD
ATOM    200  H   ARG A  21       3.913 -31.691   8.099  1.00  0.00    +0.000 HD
ATOM    201  H   ARG A  21       4.136 -37.221   3.094  1.00  0.00    +0.000 HD
ATOM      1  CD  GLU A  14       7.031 -29.837   2.969  1.00  0.00    +0.279 C 
ATOM      2  OE1 GLU A  14       7.261 -29.933   4.194  1.00  0.00    -0.279 OA
ATOM      1  OE2 GLU A  14       7.912 -29.536   2.135  1.00  0.00    -0.186 OA
ATOM      2  C   ALA A  18       7.781 -29.589   1.403  1.00  0.00    +0.221 C 
ATOM      3  O   ALA A  18       8.367 -29.212   2.417  1.00  0.00    -0.035 OA
ATOM      4  H   ALA A  18       8.297 -29.326   3.378  1.00  0.00    +0.000 HD
ATOM      1  CG2 ILE A  19       4.690 -29.851   3.725  1.00  0.00    +0.000 C 
ENDROOT
TORSDOF 0
