REMARK  Name = /var/folders/yp/yjbh3p597675h2qddgqr02y00000gn/T/tmp7x0xiomo.pdb
REMARK     285 UNITARY VALUES FOR THE UNIT CELL AUTOMATICALLY SET
REMARK     285 BY MDANALYSIS PDBWRITER BECAUSE UNIT CELL INFORMATION
REMARK     285 WAS MISSING.
REMARK     285 PROTEIN DATA BANK CONVENTIONS REQUIRE THAT
REMARK     285 CRYST1 RECORD IS INCLUDED, BUT THE VALUES ON
REMARK     285 THIS RECORD ARE MEANINGLESS.
REMARK     285 UNITARY VALUES FOR THE UNIT CELL AUTOMATICALLY SET
REMARK     285 BY MDANALYSIS PDBWRITER BECAUSE UNIT CELL INFORMATION
REMARK     285 WAS MISSING.
REMARK     285 PROTEIN DATA BANK CONVENTIONS REQUIRE THAT
REMARK     285 CRYST1 RECORD IS INCLUDED, BUT THE VALUES ON
REMARK     285 THIS RECORD ARE MEANINGLESS.
REMARK                            x       y       z     vdW  Elec       q    Type
REMARK                         _______ _______ _______ _____ _____    ______ ____
REMARK  Name = /var/folders/yp/yjbh3p597675h2qddgqr02y00000gn/T/tmp7x0xiomo.pdb
REMARK     285 UNITARY VALUES FOR THE UNIT CELL AUTOMATICALLY SET
REMARK     285 BY MDANALYSIS PDBWRITER BECAUSE UNIT CELL INFORMATION
REMARK     285 WAS MISSING.
REMARK     285 PROTEIN DATA BANK CONVENTIONS REQUIRE THAT
REMARK     285 CRYST1 RECORD IS INCLUDED, BUT THE VALUES ON
REMARK     285 THIS RECORD ARE MEANINGLESS.
REMARK     285 UNITARY VALUES FOR THE UNIT CELL AUTOMATICALLY SET
REMARK     285 BY MDANALYSIS PDBWRITER BECAUSE UNIT CELL INFORMATION
REMARK     285 WAS MISSING.
REMARK     285 PROTEIN DATA BANK CONVENTIONS REQUIRE THAT
REMARK     285 CRYST1 RECORD IS INCLUDED, BUT THE VALUES ON
REMARK     285 THIS RECORD ARE MEANINGLESS.
REMARK                            x       y       z     vdW  Elec       q    Type
REMARK                         _______ _______ _______ _____ _____    ______ ____
ROOT
ATOM      1  N   MET A   1      -3.950 -36.919   4.001  1.00  0.00    -0.123 NA
ATOM      2  CA  MET A   1      -3.135 -36.802   2.796  1.00  0.00    +0.170 C 
ATOM      3  C   MET A   1      -1.924 -37.717   2.867  1.00  0.00    +0.259 C 
ATOM      4  O   MET A   1      -1.444 -38.035   3.955  1.00  0.00    -0.272 OA
ATOM      5  CB  MET A   1      -2.675 -35.368   2.589  1.00  0.00    +0.040 C 
ATOM      6  CG  MET A   1      -3.803 -34.409   2.245  1.00  0.00    +0.060 C 
ATOM      7  SD  MET A   1      -4.762 -33.909   3.697  1.00  0.00    -0.139 S 
ATOM      8  CE  MET A   1      -4.219 -32.213   3.881  1.00  0.00    +0.069 C 
ATOM      9  N   LYS A   2      -1.428 -38.141   1.708  1.00  0.00    -0.197 N 
ATOM     10  CA  LYS A   2      -0.272 -39.032   1.657  1.00  0.00    +0.173 C 
ATOM     11  C   LYS A   2       1.028 -38.244   1.680  1.00  0.00    +0.262 C 
ATOM     12  O   LYS A   2       1.075 -37.107   1.215  1.00  0.00    -0.271 OA
ATOM     13  CB  LYS A   2      -0.315 -39.903   0.412  1.00  0.00    +0.031 C 
ATOM     14  CG  LYS A   2      -1.052 -41.219   0.607  1.00  0.00    +0.009 C 
ATOM     15  CD  LYS A   2      -1.146 -42.010  -0.687  1.00  0.00    +0.049 C 
ATOM     16  CE  LYS A   2      -0.346 -41.406  -1.749  1.00  0.00    +0.096 C 
ATOM     17  NZ  LYS A   2      -0.077 -41.982  -2.917  1.00  0.00    -0.151 NA
ATOM     18  N   LEU A   3       2.081 -38.848   2.221  1.00  0.00    -0.196 N 
ATOM     19  CA  LEU A   3       2.603 -38.447   3.524  1.00  0.00    +0.173 C 
ATOM     20  C   LEU A   3       4.012 -37.893   3.397  1.00  0.00    +0.262 C 
ATOM     21  O   LEU A   3       4.954 -38.638   3.130  1.00  0.00    -0.271 OA
ATOM     22  CB  LEU A   3       2.605 -39.621   4.488  1.00  0.00    +0.031 C 
ATOM     23  CG  LEU A   3       1.436 -39.686   5.473  1.00  0.00    +0.002 C 
ATOM     24  CD1 LEU A   3       0.945 -41.123   5.617  1.00  0.00    +0.000 C 
ATOM     25  CD2 LEU A   3       0.184 -39.074   4.858  1.00  0.00    +0.000 C 
ATOM     26  N   ALA A   4       4.158 -36.585   3.584  1.00  0.00    -0.196 N 
ATOM     27  CA  ALA A   4       5.452 -36.006   3.933  1.00  0.00    +0.173 C 
ATOM     28  C   ALA A   4       5.494 -35.604   5.398  1.00  0.00    +0.262 C 
ATOM     29  O   ALA A   4       4.499 -35.134   5.947  1.00  0.00    -0.271 OA
ATOM     30  CB  ALA A   4       5.754 -34.795   3.064  1.00  0.00    +0.033 C 
ATOM     31  N   VAL A   5       6.648 -35.785   6.034  1.00  0.00    -0.196 N 
ATOM     32  CA  VAL A   5       7.831 -34.995   5.706  1.00  0.00    +0.173 C 
ATOM     33  C   VAL A   5       8.482 -35.545   4.448  1.00  0.00    +0.262 C 
ATOM     34  O   VAL A   5       8.587 -36.758   4.277  1.00  0.00    -0.271 OA
ATOM     35  CB  VAL A   5       8.842 -34.988   6.839  1.00  0.00    +0.029 C 
ATOM     36  CG1 VAL A   5       9.555 -33.641   6.919  1.00  0.00    +0.002 C 
ATOM     37  CG2 VAL A   5       8.146 -35.233   8.175  1.00  0.00    +0.002 C 
ATOM     38  N   PHE A   6       8.920 -34.653   3.564  1.00  0.00    -0.196 N 
ATOM     39  CA  PHE A   6       9.903 -35.011   2.545  1.00  0.00    +0.173 C 
ATOM     40  C   PHE A   6      11.264 -35.263   3.171  1.00  0.00    +0.262 C 
ATOM     41  O   PHE A   6      11.740 -34.463   3.975  1.00  0.00    -0.271 OA
ATOM     42  CB  PHE A   6      10.023 -33.915   1.498  1.00  0.00    +0.035 C 
ATOM     43  CG  PHE A   6       8.904 -33.907   0.498  1.00  0.00    +0.024 C 
ATOM     44  CD1 PHE A   6       7.746 -33.183   0.756  1.00  0.00    +0.046 C 
ATOM     45  CE1 PHE A   6       6.710 -33.176  -0.170  1.00  0.00    -0.007 C 
ATOM     46  CD2 PHE A   6       9.026 -34.624  -0.687  1.00  0.00    -0.031 C 
ATOM     47  CE2 PHE A   6       7.990 -34.616  -1.613  1.00  0.00    -0.026 C 
ATOM     48  CZ  PHE A   6       6.832 -33.892  -1.355  1.00  0.00    +0.053 C 
ATOM     49  N   ALA A   7      11.892 -36.378   2.807  1.00  0.00    -0.196 N 
ATOM     50  CA  ALA A   7      13.189 -36.337   2.141  1.00  0.00    +0.173 C 
ATOM     51  C   ALA A   7      13.068 -35.751   0.742  1.00  0.00    +0.262 C 
ATOM     52  O   ALA A   7      14.039 -35.222   0.202  1.00  0.00    -0.271 OA
ATOM     53  CB  ALA A   7      13.797 -37.728   2.057  1.00  0.00    +0.033 C 
ATOM     54  N   LEU A   8      11.877 -35.844   0.158  1.00  0.00    -0.196 N 
ATOM     55  CA  LEU A   8      11.731 -35.736  -1.290  1.00  0.00    +0.173 C 
ATOM     56  C   LEU A   8      11.750 -34.281  -1.730  1.00  0.00    +0.262 C 
ATOM     57  O   LEU A   8      12.161 -33.973  -2.848  1.00  0.00    -0.271 OA
ATOM     58  CB  LEU A   8      10.437 -36.389  -1.751  1.00  0.00    +0.031 C 
ATOM     59  CG  LEU A   8      10.561 -37.809  -2.307  1.00  0.00    +0.002 C 
ATOM     60  CD1 LEU A   8      10.827 -38.797  -1.178  1.00  0.00    +0.000 C 
ATOM     61  CD2 LEU A   8      11.870 -37.972  -3.072  1.00  0.00    +0.000 C 
ATOM     62  N   ARG A   9      11.305 -33.386  -0.852  1.00  0.00    -0.196 N 
ATOM     63  CA  ARG A   9      10.049 -32.675  -1.064  1.00  0.00    +0.173 C 
ATOM     64  C   ARG A   9      10.183 -31.652  -2.181  1.00  0.00    +0.262 C 
ATOM     65  O   ARG A   9       9.341 -31.589  -3.075  1.00  0.00    -0.271 OA
ATOM     66  CB  ARG A   9       9.599 -31.976   0.210  1.00  0.00    +0.033 C 
ATOM     67  CG  ARG A   9       8.788 -32.863   1.142  1.00  0.00    +0.011 C 
ATOM     68  CD  ARG A   9       7.367 -33.057   0.639  1.00  0.00    +0.058 C 
ATOM     69  NE  ARG A   9       6.523 -31.907   0.952  1.00  0.00    -0.212 NA
ATOM     70  CZ  ARG A   9       6.285 -30.893   0.125  1.00  0.00    +0.288 C 
ATOM     71  NH1 ARG A   9       6.837 -30.861  -1.086  1.00  0.00    -0.104 N 
ATOM     72  NH2 ARG A   9       5.488 -29.902   0.512  1.00  0.00    -0.104 N 
ATOM     73  N   VAL A  10      11.243 -30.852  -2.132  1.00  0.00    -0.196 N 
ATOM     74  CA  VAL A  10      11.991 -30.657  -0.892  1.00  0.00    +0.173 C 
ATOM     75  C   VAL A  10      11.712 -29.269  -0.336  1.00  0.00    +0.262 C 
ATOM     76  O   VAL A  10      11.522 -29.106   0.868  1.00  0.00    -0.271 OA
ATOM     77  CB  VAL A  10      13.488 -30.829  -1.099  1.00  0.00    +0.029 C 
ATOM     78  CG1 VAL A  10      14.192 -31.065   0.235  1.00  0.00    +0.002 C 
ATOM     79  CG2 VAL A  10      13.766 -32.029  -1.999  1.00  0.00    +0.002 C 
ATOM     80  N   PHE A  11      11.688 -28.270  -1.213  1.00  0.00    -0.190 N 
ATOM     81  CA  PHE A  11      12.378 -27.011  -0.948  1.00  0.00    +0.211 C 
ATOM     82  C   PHE A  11      11.595 -26.167   0.046  1.00  0.00    +0.277 C 
ATOM     83  O   PHE A  11      10.379 -26.309   0.166  1.00  0.00    -0.267 OA
ATOM     84  CB  PHE A  11      12.579 -26.222  -2.232  1.00  0.00    +0.076 C 
ATOM     85  CG  PHE A  11      13.665 -25.191  -2.145  1.00  0.00    +0.084 C 
ATOM     86  CD1 PHE A  11      13.386 -23.861  -2.436  1.00  0.00    +0.001 C 
ATOM     87  CE1 PHE A  11      14.392 -22.905  -2.355  1.00  0.00    -0.002 C 
ATOM     88  CD2 PHE A  11      14.951 -25.565  -1.773  1.00  0.00    -0.016 C 
ATOM     89  CE2 PHE A  11      15.957 -24.612  -1.692  1.00  0.00    -0.004 C 
ATOM     90  CZ  PHE A  11      15.679 -23.281  -1.983  1.00  0.00    -0.001 C 
ATOM     91  N   PHE A  12      12.292 -25.289   0.761  1.00  0.00    -0.235 NA
ATOM     92  CA  PHE A  12      11.639 -24.385   1.702  1.00  0.00    +0.151 C 
ATOM     93  C   PHE A  12      11.646 -22.960   1.173  1.00  0.00    +0.145 C 
ATOM     94  O   PHE A  12      10.603 -22.428   0.798  1.00  0.00    -0.297 OA
ATOM     95  CB  PHE A  12      12.322 -24.425   3.059  1.00  0.00    +0.161 C 
ATOM     96  CG  PHE A  12      11.521 -23.794   4.160  1.00  0.00    +0.003 A 
ATOM     97  CD1 PHE A  12      10.672 -24.575   4.936  1.00  0.00    -0.002 A 
ATOM     98  CE1 PHE A  12       9.932 -23.990   5.957  1.00  0.00    -0.000 A 
ATOM     99  CD2 PHE A  12      11.631 -22.431   4.404  1.00  0.00    -0.023 A 
ATOM    100  CE2 PHE A  12      10.890 -21.846   5.424  1.00  0.00    -0.004 A 
ATOM    101  CZ  PHE A  12      10.040 -22.625   6.201  1.00  0.00    -0.000 A 
ATOM    102  N   ALA A  13      12.823 -22.341   1.142  1.00  0.00    +0.436 N 
ATOM    103  CA  ALA A  13      13.346 -21.644   2.314  1.00  0.00    +0.012 C 
ATOM    104  C   ALA A  13      12.423 -20.511   2.733  1.00  0.00    +0.179 C 
ATOM    105  O   ALA A  13      11.767 -19.896   1.894  1.00  0.00    -0.184 OA
ATOM    106  CB  ALA A  13      14.734 -21.090   2.038  1.00  0.00    -0.005 C 
ATOM    107  N   GLU A  14      12.370 -20.236   4.034  1.00  0.00    -0.254 NA
ATOM    108  CA  GLU A  14      12.356 -18.859   4.519  1.00  0.00    +0.108 C 
ATOM    109  C   GLU A  14      13.734 -18.226   4.412  1.00  0.00    +0.260 C 
ATOM    110  O   GLU A  14      14.745 -18.893   4.625  1.00  0.00    -0.202 OA
ATOM    111  N   SER A  15      13.774 -16.938   4.085  1.00  0.00    -0.162 NA
ATOM    112  CA  SER A  15      14.972 -16.133   4.309  1.00  0.00    +0.003 C 
ATOM    113  C   SER A  15      15.164 -15.830   5.787  1.00  0.00    +0.321 C 
ATOM    114  O   SER A  15      14.191 -15.731   6.534  1.00  0.00    -0.263 OA
ATOM    115  CB  SER A  15      14.899 -14.832   3.529  1.00  0.00    -0.022 C 
ATOM    116  OG  SER A  15      14.015 -13.919   4.156  1.00  0.00    -0.396 OA
ATOM    117  N   SER A  16      16.416 -15.683   6.208  1.00  0.00    -0.187 N 
ATOM    118  CA  SER A  16      16.732 -14.880   7.386  1.00  0.00    +0.206 C 
ATOM    119  C   SER A  16      16.342 -13.425   7.184  1.00  0.00    +0.264 C 
ATOM    120  O   SER A  16      16.231 -12.668   8.147  1.00  0.00    -0.271 OA
ATOM    121  CB  SER A  16      18.215 -14.966   7.711  1.00  0.00    +0.213 C 
ATOM    122  OG  SER A  16      18.414 -15.505   9.007  1.00  0.00    -0.218 OA
ATOM    123  N   ASP A  17      16.133 -13.031   5.931  1.00  0.00    -0.202 N 
ATOM    124  CA  ASP A  17      14.827 -12.550   5.492  1.00  0.00    +0.146 C 
ATOM    125  C   ASP A  17      13.926 -13.705   5.091  1.00  0.00    +0.229 C 
ATOM    126  O   ASP A  17      12.710 -13.642   5.273  1.00  0.00    -0.211 OA
ATOM    127  CB  ASP A  17      14.969 -11.587   4.324  1.00  0.00    +0.139 C 
ATOM    128  CG  ASP A  17      16.319 -10.892   4.285  1.00  0.00    +0.367 C 
ATOM    129  OD1 ASP A  17      16.990 -10.803   5.337  1.00  0.00    -0.246 OA
ATOM    130  OD2 ASP A  17      16.714 -10.427   3.195  1.00  0.00    -0.246 OA
ATOM    131  N   ALA A  18      14.518 -14.763   4.544  1.00  0.00    +0.459 N 
ATOM    132  CA  ALA A  18      13.759 -15.755   3.789  1.00  0.00    +0.084 C 
ATOM    133  C   ALA A  18      13.947 -17.146   4.371  1.00  0.00    +0.233 C 
ATOM    134  O   ALA A  18      15.046 -17.506   4.788  1.00  0.00    -0.215 OA
ATOM    135  CB  ALA A  18      14.177 -15.755   2.327  1.00  0.00    -0.019 C 
ATOM    136  N   ILE A  19      12.874 -17.931   4.400  1.00  0.00    -0.175 NA
ATOM    137  CA  ILE A  19      12.958 -19.348   4.059  1.00  0.00    +0.092 C 
ATOM    138  C   ILE A  19      12.252 -19.599   2.735  1.00  0.00    +0.330 C 
ATOM    139  O   ILE A  19      11.193 -19.031   2.475  1.00  0.00    -0.184 OA
ATOM    140  CB  ILE A  19      12.348 -20.229   5.135  1.00  0.00    +0.092 C 
ATOM    141  CG2 ILE A  19      12.923 -21.642   5.057  1.00  0.00    +0.031 C 
ATOM    142  N   ARG A  20      12.838 -20.452   1.901  1.00  0.00    -0.293 NA
ATOM    143  CA  ARG A  20      12.072 -21.486   1.210  1.00  0.00    +0.037 C 
ATOM    144  C   ARG A  20      11.645 -22.581   2.173  1.00  0.00    +0.169 C 
ATOM    145  O   ARG A  20      12.467 -23.117   2.914  1.00  0.00    -0.339 OA
ATOM    146  CB  ARG A  20      12.879 -22.092   0.075  1.00  0.00    -0.040 C 
ATOM    147  CG  ARG A  20      12.055 -22.939  -0.883  1.00  0.00    +0.025 C 
ATOM    148  CD  ARG A  20      12.893 -23.464  -2.036  1.00  0.00    +0.057 C 
ATOM    149  NE  ARG A  20      12.073 -23.759  -3.208  1.00  0.00    -0.216 NA
ATOM    150  CZ  ARG A  20      11.852 -24.978  -3.691  1.00  0.00    +0.256 C 
ATOM    151  NH1 ARG A  20      12.384 -26.046  -3.105  1.00  0.00    -0.217 NA
ATOM    152  NH2 ARG A  20      11.091 -25.130  -4.771  1.00  0.00    -0.086 N 
ATOM    153  N   ARG A  21      10.358 -22.919   2.161  1.00  0.00    -0.137 NA
ATOM    154  CA  ARG A  21       9.902 -24.197   2.698  1.00  0.00    +0.189 C 
ATOM    155  C   ARG A  21       9.560 -25.167   1.579  1.00  0.00    +0.381 C 
ATOM    156  O   ARG A  21       9.692 -26.379   1.739  1.00  0.00    -0.246 OA
ATOM    157  CB  ARG A  21       8.689 -24.008   3.594  1.00  0.00    +0.032 C 
ATOM    158  CG  ARG A  21       7.448 -23.533   2.855  1.00  0.00    +0.028 C 
ATOM    159  CD  ARG A  21       6.627 -24.697   2.325  1.00  0.00    +0.129 C 
ATOM    160  NE  ARG A  21       7.159 -25.204   1.064  1.00  0.00    -0.234 NA
ATOM    161  CZ  ARG A  21       6.430 -25.761   0.101  1.00  0.00    +0.284 C 
ATOM    162  NH1 ARG A  21       5.117 -25.912   0.248  1.00  0.00    -0.104 N 
ATOM    163  NH2 ARG A  21       7.021 -26.167  -1.019  1.00  0.00    -0.104 N 
ATOM    164  OXT ARG A  21       9.146 -24.752   0.497  1.00  0.00    -0.244 OA
ATOM    165  H   MET A   1      -4.246 -37.888   4.119  1.00  0.00    +0.000 HD
ATOM    166  H   MET A   1      -4.771 -36.321   3.917  1.00  0.00    +0.000 HD
ATOM    167  H   LYS A   2      -1.847 -37.848   0.867  1.00  0.00    +0.000 HD
ATOM    168  H   LYS A   2      -0.425 -42.881  -3.114  1.00  0.00    +0.000 HD
ATOM    169  H   LEU A   3       2.520 -39.582   1.733  1.00  0.00    +0.000 HD
ATOM    170  H   ALA A   4       3.377 -35.994   3.485  1.00  0.00    +0.000 HD
ATOM    171  H   VAL A   5       6.706 -36.466   6.743  1.00  0.00    +0.000 HD
ATOM    172  H   PHE A   6       8.575 -33.731   3.599  1.00  0.00    +0.000 HD
ATOM    173  H   ALA A   7      11.472 -37.249   2.990  1.00  0.00    +0.000 HD
ATOM    174  H   LEU A   8      11.078 -35.988   0.714  1.00  0.00    +0.000 HD
ATOM    175  H   ARG A   9      11.834 -33.200  -0.042  1.00  0.00    +0.000 HD
ATOM    176  H   ARG A   9       7.429 -31.593  -1.377  1.00  0.00    +0.000 HD
ATOM    177  H   ARG A   9       6.655 -30.106  -1.690  1.00  0.00    +0.000 HD
ATOM    178  H   ARG A   9       5.078 -29.921   1.407  1.00  0.00    +0.000 HD
ATOM    179  H   ARG A   9       5.309 -29.149  -0.096  1.00  0.00    +0.000 HD
ATOM    180  H   VAL A  10      11.531 -30.381  -2.947  1.00  0.00    +0.000 HD
ATOM    181  H   PHE A  11      11.196 -28.382  -2.058  1.00  0.00    +0.000 HD
ATOM    182  H   SER A  15      14.266 -17.346   3.290  1.00  0.00    +0.000 HD
ATOM    183  H   SER A  16      17.145 -16.124   5.715  1.00  0.00    +0.000 HD
ATOM    184  H   SER A  16      17.990 -14.931   9.664  1.00  0.00    +0.000 HD
ATOM    185  H   ASP A  17      16.876 -13.065   5.285  1.00  0.00    +0.000 HD
ATOM    186  H   ASP A  17      12.295 -14.460   4.961  1.00  0.00    +0.000 HD
ATOM    187  H   ASP A  17      16.658 -11.165   6.136  1.00  0.00    +0.000 HD
ATOM    188  H   ARG A  20      10.924 -26.031  -5.133  1.00  0.00    +0.000 HD
ATOM    189  H   ARG A  20      10.695 -24.342  -5.210  1.00  0.00    +0.000 HD
ATOM    190  H   ARG A  21       4.586 -26.326  -0.470  1.00  0.00    +0.000 HD
ATOM    191  H   ARG A  21       4.677 -25.611   1.076  1.00  0.00    +0.000 HD
ATOM    192  H   ARG A  21       6.486 -26.580  -1.736  1.00  0.00    +0.000 HD
ATOM    193  H   ARG A  21       7.992 -26.055  -1.132  1.00  0.00    +0.000 HD
ATOM      1  CB  GLU A  14      11.879 -18.798   5.961  1.00  0.00    +0.012 C 
ATOM      2  CG  GLU A  14      12.061 -17.436   6.612  1.00  0.00    +0.114 C 
ATOM      3  CD  GLU A  14      11.767 -17.437   8.102  1.00  0.00    +0.365 C 
ATOM      4  OE1 GLU A  14      11.265 -18.460   8.621  1.00  0.00    -0.246 OA
ATOM      5  OE2 GLU A  14      12.038 -16.408   8.758  1.00  0.00    -0.246 OA
ATOM      6  CG1 ILE A  19      12.615 -19.649   6.523  1.00  0.00    +0.001 C 
ATOM      7  CD1 ILE A  19      12.184 -20.556   7.664  1.00  0.00    +0.000 C 
ATOM      8  H   GLU A  14      12.413 -15.664   8.328  1.00  0.00    +0.000 HD
ENDROOT
TORSDOF 0
