REMARK  Name = /var/folders/yp/yjbh3p597675h2qddgqr02y00000gn/T/tmpzric9ybi.pdb
REMARK     285 UNITARY VALUES FOR THE UNIT CELL AUTOMATICALLY SET
REMARK     285 BY MDANALYSIS PDBWRITER BECAUSE UNIT CELL INFORMATION
REMARK     285 WAS MISSING.
REMARK     285 PROTEIN DATA BANK CONVENTIONS REQUIRE THAT
REMARK     285 CRYST1 RECORD IS INCLUDED, BUT THE VALUES ON
REMARK     285 THIS RECORD ARE MEANINGLESS.
REMARK     285 UNITARY VALUES FOR THE UNIT CELL AUTOMATICALLY SET
REMARK     285 BY MDANALYSIS PDBWRITER BECAUSE UNIT CELL INFORMATION
REMARK     285 WAS MISSING.
REMARK     285 PROTEIN DATA BANK CONVENTIONS REQUIRE THAT
REMARK     285 CRYST1 RECORD IS INCLUDED, BUT THE VALUES ON
REMARK     285 THIS RECORD ARE MEANINGLESS.
REMARK                            x       y       z     vdW  Elec       q    Type
REMARK                         _______ _______ _______ _____ _____    ______ ____
REMARK  Name = /var/folders/yp/yjbh3p597675h2qddgqr02y00000gn/T/tmpzric9ybi.pdb
REMARK     285 UNITARY VALUES FOR THE UNIT CELL AUTOMATICALLY SET
REMARK     285 BY MDANALYSIS PDBWRITER BECAUSE UNIT CELL INFORMATION
REMARK     285 WAS MISSING.
REMARK     285 PROTEIN DATA BANK CONVENTIONS REQUIRE THAT
REMARK     285 CRYST1 RECORD IS INCLUDED, BUT THE VALUES ON
REMARK     285 THIS RECORD ARE MEANINGLESS.
REMARK     285 UNITARY VALUES FOR THE UNIT CELL AUTOMATICALLY SET
REMARK     285 BY MDANALYSIS PDBWRITER BECAUSE UNIT CELL INFORMATION
REMARK     285 WAS MISSING.
REMARK     285 PROTEIN DATA BANK CONVENTIONS REQUIRE THAT
REMARK     285 CRYST1 RECORD IS INCLUDED, BUT THE VALUES ON
REMARK     285 THIS RECORD ARE MEANINGLESS.
REMARK                            x       y       z     vdW  Elec       q    Type
REMARK                         _______ _______ _______ _____ _____    ______ ____
ROOT
ATOM      1  N   MET A   1      14.276  26.809  -3.486  1.00  0.00    -0.123 NA
ATOM      2  CA  MET A   1      13.252  26.202  -2.640  1.00  0.00    +0.170 C 
ATOM      3  C   MET A   1      13.693  26.178  -1.185  1.00  0.00    +0.259 C 
ATOM      4  O   MET A   1      14.865  25.946  -0.891  1.00  0.00    -0.272 OA
ATOM      5  CB  MET A   1      12.940  24.786  -3.098  1.00  0.00    +0.040 C 
ATOM      6  CG  MET A   1      12.614  24.683  -4.578  1.00  0.00    +0.060 C 
ATOM      7  SD  MET A   1      12.014  23.041  -5.048  1.00  0.00    -0.139 S 
ATOM      8  CE  MET A   1      12.438  23.020  -6.787  1.00  0.00    +0.069 C 
ATOM      9  N   LYS A   2      12.756  26.418  -0.273  1.00  0.00    -0.197 N 
ATOM     10  CA  LYS A   2      13.092  26.586   1.138  1.00  0.00    +0.173 C 
ATOM     11  C   LYS A   2      13.108  25.246   1.858  1.00  0.00    +0.262 C 
ATOM     12  O   LYS A   2      12.206  24.430   1.677  1.00  0.00    -0.271 OA
ATOM     13  CB  LYS A   2      12.107  27.517   1.822  1.00  0.00    +0.031 C 
ATOM     14  CG  LYS A   2      12.580  28.959   1.906  1.00  0.00    +0.009 C 
ATOM     15  CD  LYS A   2      11.446  29.907   2.262  1.00  0.00    +0.049 C 
ATOM     16  CE  LYS A   2      10.844  29.568   3.549  1.00  0.00    +0.096 C 
ATOM     17  NZ  LYS A   2      10.036  30.364   4.241  1.00  0.00    -0.151 NA
ATOM     18  N   LEU A   3      14.133  25.021   2.675  1.00  0.00    -0.196 N 
ATOM     19  CA  LEU A   3      13.924  24.618   4.063  1.00  0.00    +0.173 C 
ATOM     20  C   LEU A   3      13.423  25.787   4.895  1.00  0.00    +0.262 C 
ATOM     21  O   LEU A   3      13.994  26.877   4.849  1.00  0.00    -0.271 OA
ATOM     22  CB  LEU A   3      15.211  24.079   4.667  1.00  0.00    +0.031 C 
ATOM     23  CG  LEU A   3      15.587  22.648   4.283  1.00  0.00    +0.002 C 
ATOM     24  CD1 LEU A   3      14.354  21.753   4.311  1.00  0.00    +0.000 C 
ATOM     25  CD2 LEU A   3      16.384  21.983   5.401  1.00  0.00    +0.000 C 
ATOM     26  N   ALA A   4      12.358  25.564   5.657  1.00  0.00    -0.196 N 
ATOM     27  CA  ALA A   4      12.373  25.849   7.089  1.00  0.00    +0.173 C 
ATOM     28  C   ALA A   4      13.300  24.896   7.826  1.00  0.00    +0.262 C 
ATOM     29  O   ALA A   4      13.459  23.744   7.426  1.00  0.00    -0.271 OA
ATOM     30  CB  ALA A   4      10.973  25.749   7.674  1.00  0.00    +0.033 C 
ATOM     31  N   VAL A   5      13.914  25.376   8.903  1.00  0.00    -0.196 N 
ATOM     32  CA  VAL A   5      14.498  24.487   9.904  1.00  0.00    +0.173 C 
ATOM     33  C   VAL A   5      13.725  24.604  11.207  1.00  0.00    +0.262 C 
ATOM     34  O   VAL A   5      13.396  25.707  11.642  1.00  0.00    -0.271 OA
ATOM     35  CB  VAL A   5      15.964  24.800  10.154  1.00  0.00    +0.029 C 
ATOM     36  CG1 VAL A   5      16.742  24.828   8.842  1.00  0.00    +0.002 C 
ATOM     37  CG2 VAL A   5      16.111  26.168  10.819  1.00  0.00    +0.002 C 
ATOM     38  N   PHE A   6      13.435  23.467  11.833  1.00  0.00    -0.196 N 
ATOM     39  CA  PHE A   6      13.351  23.400  13.289  1.00  0.00    +0.177 C 
ATOM     40  C   PHE A   6      14.725  23.560  13.916  1.00  0.00    +0.262 C 
ATOM     41  O   PHE A   6      15.621  22.752  13.675  1.00  0.00    -0.271 OA
ATOM     42  CB  PHE A   6      12.739  22.082  13.736  1.00  0.00    +0.051 C 
ATOM     43  CG  PHE A   6      11.256  21.997  13.520  1.00  0.00    -0.024 A 
ATOM     44  CD1 PHE A   6      10.747  21.919  12.229  1.00  0.00    -0.005 A 
ATOM     45  CE1 PHE A   6       9.374  21.840  12.029  1.00  0.00    -0.000 A 
ATOM     46  CD2 PHE A   6      10.394  21.997  14.610  1.00  0.00    -0.026 A 
ATOM     47  CE2 PHE A   6       9.020  21.918  14.409  1.00  0.00    -0.005 A 
ATOM     48  CZ  PHE A   6       8.511  21.839  13.119  1.00  0.00    -0.000 A 
ATOM     49  N   ALA A   7      14.895  24.604  14.723  1.00  0.00    -0.202 N 
ATOM     50  CA  ALA A   7      14.187  24.704  15.996  1.00  0.00    +0.142 C 
ATOM     51  C   ALA A   7      12.711  24.999  15.779  1.00  0.00    +0.236 C 
ATOM     52  O   ALA A   7      11.855  24.428  16.453  1.00  0.00    -0.245 OA
ATOM     53  CB  ALA A   7      14.798  25.785  16.871  1.00  0.00    +0.028 C 
ATOM     54  N   LEU A   8      12.413  25.891  14.840  1.00  0.00    -0.181 NA
ATOM     55  CA  LEU A   8      12.166  27.291  15.172  1.00  0.00    +0.153 C 
ATOM     56  C   LEU A   8      10.823  27.454  15.866  1.00  0.00    +0.258 C 
ATOM     57  O   LEU A   8      10.534  28.508  16.430  1.00  0.00    -0.272 OA
ATOM     58  CB  LEU A   8      12.200  28.156  13.922  1.00  0.00    +0.027 C 
ATOM     59  CG  LEU A   8      13.482  28.961  13.695  1.00  0.00    +0.002 C 
ATOM     60  CD1 LEU A   8      13.176  30.227  12.904  1.00  0.00    +0.000 C 
ATOM     61  CD2 LEU A   8      14.379  28.261  12.679  1.00  0.00    +0.000 C 
ATOM     62  N   ARG A   9      10.000  26.410  15.822  1.00  0.00    -0.197 N 
ATOM     63  CA  ARG A   9       9.293  25.951  17.014  1.00  0.00    +0.173 C 
ATOM     64  C   ARG A   9      10.187  25.067  17.870  1.00  0.00    +0.268 C 
ATOM     65  O   ARG A   9      10.008  24.987  19.084  1.00  0.00    -0.271 OA
ATOM     66  CB  ARG A   9       8.035  25.185  16.638  1.00  0.00    +0.033 C 
ATOM     67  CG  ARG A   9       6.951  26.053  16.017  1.00  0.00    +0.029 C 
ATOM     68  CD  ARG A   9       5.769  25.225  15.542  1.00  0.00    +0.129 C 
ATOM     69  NE  ARG A   9       4.996  25.926  14.521  1.00  0.00    -0.234 NA
ATOM     70  CZ  ARG A   9       3.671  26.046  14.523  1.00  0.00    +0.284 C 
ATOM     71  NH1 ARG A   9       2.935  25.421  15.437  1.00  0.00    -0.104 N 
ATOM     72  NH2 ARG A   9       3.078  26.797  13.598  1.00  0.00    -0.104 N 
ATOM     73  N   VAL A  10      11.150  24.403  17.237  1.00  0.00    -0.158 N 
ATOM     74  CA  VAL A  10      11.767  23.217  17.823  1.00  0.00    +0.181 C 
ATOM     75  C   VAL A  10      13.084  23.593  18.483  1.00  0.00    +0.262 C 
ATOM     76  O   VAL A  10      13.870  24.351  17.918  1.00  0.00    -0.271 OA
ATOM     77  CB  VAL A  10      12.009  22.133  16.785  1.00  0.00    +0.034 C 
ATOM     78  CG1 VAL A  10      10.688  21.525  16.321  1.00  0.00    +0.028 C 
ATOM     79  CG2 VAL A  10      12.715  22.715  15.563  1.00  0.00    +0.009 C 
ATOM     80  N   PHE A  11      13.324  23.064  19.679  1.00  0.00    -0.196 N 
ATOM     81  CA  PHE A  11      14.687  22.787  20.127  1.00  0.00    +0.177 C 
ATOM     82  C   PHE A  11      15.113  21.386  19.723  1.00  0.00    +0.262 C 
ATOM     83  O   PHE A  11      15.543  20.598  20.563  1.00  0.00    -0.271 OA
ATOM     84  CB  PHE A  11      14.801  22.939  21.635  1.00  0.00    +0.057 C 
ATOM     85  CG  PHE A  11      16.201  22.787  22.156  1.00  0.00    -0.020 A 
ATOM     86  CD1 PHE A  11      17.043  23.889  22.218  1.00  0.00    -0.004 A 
ATOM     87  CE1 PHE A  11      18.339  23.748  22.701  1.00  0.00    -0.000 A 
ATOM     88  CD2 PHE A  11      16.653  21.541  22.574  1.00  0.00    -0.004 A 
ATOM     89  CE2 PHE A  11      17.949  21.399  23.057  1.00  0.00    -0.000 A 
ATOM     90  CZ  PHE A  11      18.792  22.502  23.120  1.00  0.00    -0.000 A 
ATOM     91  N   PHE A  12      14.994  21.074  18.436  1.00  0.00    -0.196 N 
ATOM     92  CA  PHE A  12      15.682  19.919  17.866  1.00  0.00    +0.177 C 
ATOM     93  C   PHE A  12      17.185  20.147  17.841  1.00  0.00    +0.262 C 
ATOM     94  O   PHE A  12      17.680  20.962  17.064  1.00  0.00    -0.271 OA
ATOM     95  CB  PHE A  12      15.187  19.633  16.458  1.00  0.00    +0.057 C 
ATOM     96  CG  PHE A  12      16.103  18.753  15.661  1.00  0.00    -0.020 A 
ATOM     97  CD1 PHE A  12      17.479  18.835  15.840  1.00  0.00    -0.005 A 
ATOM     98  CE1 PHE A  12      18.327  18.020  15.102  1.00  0.00    -0.004 A 
ATOM     99  CD2 PHE A  12      15.576  17.854  14.739  1.00  0.00    -0.005 A 
ATOM    100  CE2 PHE A  12      16.424  17.039  14.000  1.00  0.00    -0.004 A 
ATOM    101  CZ  PHE A  12      17.799  17.122  14.181  1.00  0.00    -0.012 A 
ATOM    102  N   ALA A  13      17.913  19.425  18.689  1.00  0.00    -0.196 N 
ATOM    103  CA  ALA A  13      18.826  18.390  18.215  1.00  0.00    +0.173 C 
ATOM    104  C   ALA A  13      18.065  17.243  17.569  1.00  0.00    +0.261 C 
ATOM    105  O   ALA A  13      16.946  16.931  17.972  1.00  0.00    -0.271 OA
ATOM    106  CB  ALA A  13      19.673  17.855  19.358  1.00  0.00    +0.033 C 
ATOM    107  N   GLU A  14      18.672  16.615  16.566  1.00  0.00    -0.204 N 
ATOM    108  CA  GLU A  14      18.183  15.333  16.066  1.00  0.00    +0.116 C 
ATOM    109  CB  GLU A  14      18.725  15.054  14.674  1.00  0.00    +0.039 C 
ATOM    110  CG  GLU A  14      17.958  15.755  13.563  1.00  0.00    +0.127 C 
ATOM    111  CD  GLU A  14      18.453  15.396  12.172  1.00  0.00    +0.368 C 
ATOM    112  OE1 GLU A  14      18.896  14.247  11.963  1.00  0.00    -0.245 OA
ATOM    113  OE2 GLU A  14      18.399  16.275  11.284  1.00  0.00    -0.245 OA
ATOM    114  H   MET A   1      14.469  27.755  -3.160  1.00  0.00    +0.000 HD
ATOM    115  H   MET A   1      13.944  26.841  -4.450  1.00  0.00    +0.000 HD
ATOM    116  H   LYS A   2      11.815  26.483  -0.556  1.00  0.00    +0.000 HD
ATOM    117  H   LYS A   2       9.805  31.255   3.891  1.00  0.00    +0.000 HD
ATOM    118  H   LEU A   3      15.051  25.128   2.337  1.00  0.00    +0.000 HD
ATOM    119  H   ALA A   4      11.541  25.198   5.248  1.00  0.00    +0.000 HD
ATOM    120  H   VAL A   5      13.977  26.351   9.028  1.00  0.00    +0.000 HD
ATOM    121  H   PHE A   6      13.274  22.653  11.304  1.00  0.00    +0.000 HD
ATOM    122  H   ALA A   7      15.511  25.325  14.456  1.00  0.00    +0.000 HD
ATOM    123  H   LEU A   8      13.189  25.885  14.178  1.00  0.00    +0.000 HD
ATOM    124  H   ARG A   9       9.864  25.939  14.969  1.00  0.00    +0.000 HD
ATOM    125  H   ARG A   9       3.369  24.865  16.123  1.00  0.00    +0.000 HD
ATOM    126  H   ARG A   9       1.954  25.515  15.428  1.00  0.00    +0.000 HD
ATOM    127  H   ARG A   9       3.620  27.261  12.919  1.00  0.00    +0.000 HD
ATOM    128  H   ARG A   9       2.098  26.888  13.592  1.00  0.00    +0.000 HD
ATOM    129  H   PHE A  11      12.569  22.855  20.275  1.00  0.00    +0.000 HD
ATOM    130  H   PHE A  12      14.429  21.633  17.855  1.00  0.00    +0.000 HD
ATOM    131  H   ALA A  13      17.834  19.592  19.655  1.00  0.00    +0.000 HD
ATOM    132  H   GLU A  14      19.466  17.022  16.151  1.00  0.00    +0.000 HD
ATOM    133  H   GLU A  14      18.917  13.620  12.659  1.00  0.00    +0.000 HD
ATOM      1  C   GLU A  14      18.569  14.197  16.998  1.00  0.00    +0.201 C 
ATOM      2  O   GLU A  14      19.445  14.355  17.846  1.00  0.00    -0.219 OA
ATOM      3  N   SER A  15      17.914  13.049  16.842  1.00  0.00    -0.130 NA
ATOM      4  CA  SER A  15      18.206  11.889  17.678  1.00  0.00    +0.026 C 
ATOM      5  C   SER A  15      18.953  10.820  16.897  1.00  0.00    +0.162 C 
ATOM      6  O   SER A  15      18.504  10.395  15.834  1.00  0.00    -0.322 OA
ATOM      7  CB  SER A  15      16.924  11.300  18.246  1.00  0.00    +0.036 C 
ATOM      8  OG  SER A  15      16.104  10.790  17.210  1.00  0.00    -0.223 OA
ATOM      9  N   SER A  16      20.093  10.383  17.424  1.00  0.00    -0.184 NA
ATOM     10  CA  SER A  16      20.352   8.957  17.601  1.00  0.00    +0.182 C 
ATOM     11  C   SER A  16      20.199   8.546  19.056  1.00  0.00    +0.260 C 
ATOM     12  O   SER A  16      20.442   9.344  19.960  1.00  0.00    -0.272 OA
ATOM     13  CB  SER A  16      21.749   8.602  17.120  1.00  0.00    +0.173 C 
ATOM     14  OG  SER A  16      22.719   8.942  18.097  1.00  0.00    -0.222 OA
ATOM     15  N   ASP A  17      19.797   7.300  19.285  1.00  0.00    -0.201 N 
ATOM     16  CA  ASP A  17      20.749   6.237  19.594  1.00  0.00    +0.153 C 
ATOM     17  C   ASP A  17      21.266   5.582  18.323  1.00  0.00    +0.241 C 
ATOM     18  O   ASP A  17      22.159   4.738  18.374  1.00  0.00    -0.217 OA
ATOM     19  CB  ASP A  17      20.116   5.183  20.487  1.00  0.00    +0.140 C 
ATOM     20  CG  ASP A  17      18.597   5.192  20.433  1.00  0.00    +0.367 C 
ATOM     21  OD1 ASP A  17      18.000   6.273  20.239  1.00  0.00    -0.246 OA
ATOM     22  OD2 ASP A  17      17.992   4.109  20.587  1.00  0.00    -0.246 OA
ATOM     23  N   ALA A  18      20.703   5.970  17.181  1.00  0.00    -0.180 NA
ATOM     24  CA  ALA A  18      20.676   7.375  16.787  1.00  0.00    +0.161 C 
ATOM     25  C   ALA A  18      19.249   7.872  16.626  1.00  0.00    +0.260 C 
ATOM     26  O   ALA A  18      18.298   7.132  16.877  1.00  0.00    -0.272 OA
ATOM     27  CB  ALA A  18      21.436   7.585  15.488  1.00  0.00    +0.062 C 
ATOM     28  N   ILE A  19      19.097   9.125  16.208  1.00  0.00    -0.172 N 
ATOM     29  CA  ILE A  19      17.789   9.643  15.820  1.00  0.00    +0.248 C 
ATOM     30  C   ILE A  19      17.709   9.752  14.307  1.00  0.00    +0.286 C 
ATOM     31  O   ILE A  19      16.677  10.142  13.761  1.00  0.00    -0.269 OA
ATOM     32  CB  ILE A  19      17.510  11.002  16.442  1.00  0.00    +0.124 C 
ATOM     33  CG1 ILE A  19      18.813  11.696  16.830  1.00  0.00    +0.046 C 
ATOM     34  CG2 ILE A  19      16.628  10.851  17.679  1.00  0.00    +0.160 C 
ATOM     35  CD1 ILE A  19      18.622  13.087  17.414  1.00  0.00    +0.125 C 
ATOM     36  N   ARG A  20      18.799   9.408  13.625  1.00  0.00    -0.194 N 
ATOM     37  CA  ARG A  20      18.706   8.761  12.319  1.00  0.00    +0.173 C 
ATOM     38  C   ARG A  20      18.164   7.346  12.449  1.00  0.00    +0.262 C 
ATOM     39  O   ARG A  20      17.843   6.705  11.450  1.00  0.00    -0.271 OA
ATOM     40  CB  ARG A  20      20.062   8.725  11.635  1.00  0.00    +0.033 C 
ATOM     41  CG  ARG A  20      20.000   8.326  10.169  1.00  0.00    +0.029 C 
ATOM     42  CD  ARG A  20      21.318   8.586   9.457  1.00  0.00    +0.129 C 
ATOM     43  NE  ARG A  20      21.111   9.043   8.087  1.00  0.00    -0.234 NA
ATOM     44  CZ  ARG A  20      21.660   8.490   7.011  1.00  0.00    +0.284 C 
ATOM     45  NH1 ARG A  20      22.455   7.431   7.124  1.00  0.00    -0.104 N 
ATOM     46  NH2 ARG A  20      21.410   9.000   5.807  1.00  0.00    -0.104 N 
ATOM     47  N   ARG A  21      18.063   6.857  13.682  1.00  0.00    -0.194 N 
ATOM     48  CA  ARG A  21      17.983   5.420  13.926  1.00  0.00    +0.198 C 
ATOM     49  C   ARG A  21      16.591   5.024  14.393  1.00  0.00    +0.384 C 
ATOM     50  O   ARG A  21      16.304   3.841  14.564  1.00  0.00    -0.244 OA
ATOM     51  CB  ARG A  21      19.008   4.987  14.961  1.00  0.00    +0.035 C 
ATOM     52  CG  ARG A  21      20.333   4.541  14.365  1.00  0.00    +0.026 C 
ATOM     53  CD  ARG A  21      20.905   3.337  15.096  1.00  0.00    +0.116 C 
ATOM     54  NE  ARG A  21      22.259   3.591  15.577  1.00  0.00    -0.201 N 
ATOM     55  CZ  ARG A  21      22.610   3.655  16.857  1.00  0.00    +0.279 C 
ATOM     56  NH1 ARG A  21      23.086   4.784  17.375  1.00  0.00    -0.091 N 
ATOM     57  NH2 ARG A  21      22.485   2.578  17.628  1.00  0.00    -0.106 NA
ATOM     58  OXT ARG A  21      15.736   5.882  14.606  1.00  0.00    -0.244 OA
ATOM     59  H   GLU A  14      20.151  13.703  17.707  1.00  0.00    +0.000 HD
ATOM     60  H   SER A  15      17.842  13.929  16.333  1.00  0.00    +0.000 HD
ATOM     61  H   SER A  15      17.057  12.891  17.372  1.00  0.00    +0.000 HD
ATOM     62  H   SER A  15      16.217   9.971  16.703  1.00  0.00    +0.000 HD
ATOM     63  H   SER A  16      20.841  10.739  16.830  1.00  0.00    +0.000 HD
ATOM     64  H   SER A  16      23.602   8.708  17.770  1.00  0.00    +0.000 HD
ATOM     65  H   ASP A  17      18.836   7.089  19.246  1.00  0.00    +0.000 HD
ATOM     66  H   ASP A  17      18.475   3.319  20.731  1.00  0.00    +0.000 HD
ATOM     67  H   ALA A  18      21.189   5.470  16.436  1.00  0.00    +0.000 HD
ATOM     68  H   ILE A  19      19.883   9.715  16.159  1.00  0.00    +0.000 HD
ATOM     69  H   ARG A  20      19.686   9.592  14.010  1.00  0.00    +0.000 HD
ATOM     70  H   ARG A  20      22.857   7.028   6.321  1.00  0.00    +0.000 HD
ATOM     71  H   ARG A  20      22.642   7.048   8.011  1.00  0.00    +0.000 HD
ATOM     72  H   ARG A  20      21.815   8.593   5.007  1.00  0.00    +0.000 HD
ATOM     73  H   ARG A  20      20.820   9.784   5.717  1.00  0.00    +0.000 HD
ATOM     74  H   ARG A  21      18.042   7.477  14.447  1.00  0.00    +0.000 HD
ATOM     75  H   ARG A  21      16.944   3.176  14.406  1.00  0.00    +0.000 HD
ATOM     76  H   ARG A  21      22.964   3.725  14.903  1.00  0.00    +0.000 HD
ATOM     77  H   ARG A  21      23.813   5.402  17.134  1.00  0.00    +0.000 HD
ATOM     78  H   ARG A  21      22.744   2.620  18.578  1.00  0.00    +0.000 HD
ENDROOT
TORSDOF 0
