REMARK  Name = /var/folders/yp/yjbh3p597675h2qddgqr02y00000gn/T/tmpqz1v2r2n.pdb
REMARK     285 UNITARY VALUES FOR THE UNIT CELL AUTOMATICALLY SET
REMARK     285 BY MDANALYSIS PDBWRITER BECAUSE UNIT CELL INFORMATION
REMARK     285 WAS MISSING.
REMARK     285 PROTEIN DATA BANK CONVENTIONS REQUIRE THAT
REMARK     285 CRYST1 RECORD IS INCLUDED, BUT THE VALUES ON
REMARK     285 THIS RECORD ARE MEANINGLESS.
REMARK     285 UNITARY VALUES FOR THE UNIT CELL AUTOMATICALLY SET
REMARK     285 BY MDANALYSIS PDBWRITER BECAUSE UNIT CELL INFORMATION
REMARK     285 WAS MISSING.
REMARK     285 PROTEIN DATA BANK CONVENTIONS REQUIRE THAT
REMARK     285 CRYST1 RECORD IS INCLUDED, BUT THE VALUES ON
REMARK     285 THIS RECORD ARE MEANINGLESS.
REMARK                            x       y       z     vdW  Elec       q    Type
REMARK                         _______ _______ _______ _____ _____    ______ ____
ROOT
ATOM      1  N   MET A   1     -22.110   5.410  -4.123  1.00  0.00    -0.123 NA
ATOM      2  CA  MET A   1     -22.829   4.515  -5.026  1.00  0.00    +0.170 C 
ATOM      3  C   MET A   1     -22.550   4.869  -6.478  1.00  0.00    +0.259 C 
ATOM      4  O   MET A   1     -22.586   6.039  -6.855  1.00  0.00    -0.272 OA
ATOM      5  CB  MET A   1     -24.326   4.576  -4.769  1.00  0.00    +0.040 C 
ATOM      6  CG  MET A   1     -25.140   3.680  -5.689  1.00  0.00    +0.060 C 
ATOM      7  SD  MET A   1     -24.770   1.923  -5.458  1.00  0.00    -0.139 S 
ATOM      8  CE  MET A   1     -23.630   2.005  -4.081  1.00  0.00    +0.069 C 
ATOM      9  N   LYS A   2     -22.269   3.857  -7.294  1.00  0.00    -0.196 N 
ATOM     10  CA  LYS A   2     -22.316   4.015  -8.744  1.00  0.00    +0.175 C 
ATOM     11  C   LYS A   2     -23.750   4.130  -9.235  1.00  0.00    +0.261 C 
ATOM     12  O   LYS A   2     -24.643   3.462  -8.716  1.00  0.00    -0.271 OA
ATOM     13  CB  LYS A   2     -21.633   2.848  -9.439  1.00  0.00    +0.061 C 
ATOM     14  CG  LYS A   2     -21.714   2.902 -10.956  1.00  0.00    +0.125 C 
ATOM     15  CD  LYS A   2     -20.941   1.765 -11.603  1.00  0.00    +0.079 C 
ATOM     16  CE  LYS A   2     -21.632   1.243 -12.779  1.00  0.00    +0.098 C 
ATOM     17  NZ  LYS A   2     -22.800   0.608 -12.753  1.00  0.00    -0.151 NA
ATOM     18  N   LEU A   3     -23.972   4.975 -10.238  1.00  0.00    -0.202 N 
ATOM     19  CA  LEU A   3     -24.428   4.505 -11.543  1.00  0.00    +0.139 C 
ATOM     20  C   LEU A   3     -23.290   3.860 -12.315  1.00  0.00    +0.210 C 
ATOM     21  O   LEU A   3     -22.122   4.168 -12.079  1.00  0.00    -0.340 OA
ATOM     22  CB  LEU A   3     -25.007   5.651 -12.356  1.00  0.00    +0.026 C 
ATOM     23  CG  LEU A   3     -26.252   6.326 -11.776  1.00  0.00    +0.002 C 
ATOM     24  CD1 LEU A   3     -27.209   5.279 -11.218  1.00  0.00    +0.000 C 
ATOM     25  CD2 LEU A   3     -27.133   6.874 -12.893  1.00  0.00    +0.000 C 
ATOM     26  N   ALA A   4     -23.627   2.964 -13.237  1.00  0.00    -0.183 NA
ATOM     27  CA  ALA A   4     -24.098   3.371 -14.557  1.00  0.00    +0.153 C 
ATOM     28  C   ALA A   4     -25.426   4.104 -14.462  1.00  0.00    +0.258 C 
ATOM     29  O   ALA A   4     -26.251   3.795 -13.604  1.00  0.00    -0.272 OA
ATOM     30  CB  ALA A   4     -24.248   2.166 -15.473  1.00  0.00    +0.029 C 
ATOM     31  N   VAL A   5     -25.636   5.077 -15.344  1.00  0.00    -0.197 N 
ATOM     32  CA  VAL A   5     -26.922   5.229 -16.018  1.00  0.00    +0.173 C 
ATOM     33  C   VAL A   5     -27.133   4.078 -16.989  1.00  0.00    +0.262 C 
ATOM     34  O   VAL A   5     -26.244   3.752 -17.773  1.00  0.00    -0.271 OA
ATOM     35  CB  VAL A   5     -27.019   6.547 -16.766  1.00  0.00    +0.029 C 
ATOM     36  CG1 VAL A   5     -28.473   6.875 -17.099  1.00  0.00    +0.002 C 
ATOM     37  CG2 VAL A   5     -26.463   7.686 -15.913  1.00  0.00    +0.002 C 
ATOM     38  N   PHE A   6     -28.309   3.461 -16.936  1.00  0.00    -0.196 N 
ATOM     39  CA  PHE A   6     -29.070   3.170 -18.147  1.00  0.00    +0.173 C 
ATOM     40  C   PHE A   6     -29.732   4.429 -18.684  1.00  0.00    +0.262 C 
ATOM     41  O   PHE A   6     -30.347   5.181 -17.929  1.00  0.00    -0.271 OA
ATOM     42  CB  PHE A   6     -30.131   2.114 -17.881  1.00  0.00    +0.033 C 
ATOM     43  CG  PHE A   6     -31.047   2.449 -16.742  1.00  0.00    +0.021 C 
ATOM     44  CD1 PHE A   6     -32.191   3.206 -16.968  1.00  0.00    +0.070 C 
ATOM     45  CE1 PHE A   6     -33.040   3.516 -15.912  1.00  0.00    +0.099 C 
ATOM     46  CD2 PHE A   6     -30.753   2.003 -15.458  1.00  0.00    +0.027 C 
ATOM     47  CE2 PHE A   6     -31.601   2.313 -14.402  1.00  0.00    +0.032 C 
ATOM     48  CZ  PHE A   6     -32.745   3.070 -14.629  1.00  0.00    +0.123 C 
ATOM     49  N   ALA A   7     -29.605   4.660 -19.987  1.00  0.00    -0.196 N 
ATOM     50  CA  ALA A   7     -30.633   5.374 -20.737  1.00  0.00    +0.173 C 
ATOM     51  C   ALA A   7     -31.923   4.571 -20.798  1.00  0.00    +0.262 C 
ATOM     52  O   ALA A   7     -33.005   5.139 -20.952  1.00  0.00    -0.271 OA
ATOM     53  CB  ALA A   7     -30.158   5.679 -22.149  1.00  0.00    +0.033 C 
ATOM     54  N   LEU A   8     -31.811   3.252 -20.676  1.00  0.00    -0.196 N 
ATOM     55  CA  LEU A   8     -32.978   2.379 -20.752  1.00  0.00    +0.171 C 
ATOM     56  C   LEU A   8     -33.887   2.580 -19.551  1.00  0.00    +0.246 C 
ATOM     57  O   LEU A   8     -35.094   2.760 -19.704  1.00  0.00    -0.273 OA
ATOM     58  CB  LEU A   8     -32.554   0.920 -20.830  1.00  0.00    +0.031 C 
ATOM     59  CG  LEU A   8     -33.645  -0.076 -21.230  1.00  0.00    +0.002 C 
ATOM     60  CD1 LEU A   8     -33.446  -1.398 -20.499  1.00  0.00    +0.000 C 
ATOM     61  CD2 LEU A   8     -33.425  -0.565 -22.658  1.00  0.00    +0.000 C 
ATOM     62  N   ARG A   9     -33.308   2.551 -18.353  1.00  0.00    -0.274 N 
ATOM     63  CA  ARG A   9     -33.646   1.526 -17.371  1.00  0.00    +0.155 C 
ATOM     64  C   ARG A   9     -35.058   1.724 -16.842  1.00  0.00    +0.260 C 
ATOM     65  O   ARG A   9     -35.751   0.757 -16.534  1.00  0.00    -0.272 OA
ATOM     66  CB  ARG A   9     -32.663   1.541 -16.212  1.00  0.00    +0.046 C 
ATOM     67  CG  ARG A   9     -31.577   0.481 -16.313  1.00  0.00    +0.028 C 
ATOM     68  CD  ARG A   9     -30.418   0.769 -15.372  1.00  0.00    +0.107 C 
ATOM     69  NE  ARG A   9     -29.290  -0.123 -15.619  1.00  0.00    -0.236 NA
ATOM     70  CZ  ARG A   9     -28.047   0.278 -15.870  1.00  0.00    +0.284 C 
ATOM     71  NH1 ARG A   9     -27.792   1.547 -16.175  1.00  0.00    -0.104 N 
ATOM     72  NH2 ARG A   9     -27.049  -0.599 -15.815  1.00  0.00    -0.104 N 
ATOM     73  N   VAL A  10     -35.482   2.979 -16.734  1.00  0.00    -0.203 N 
ATOM     74  CA  VAL A  10     -34.551   4.080 -16.500  1.00  0.00    +0.123 C 
ATOM     75  C   VAL A  10     -34.390   4.308 -15.006  1.00  0.00    +0.175 C 
ATOM     76  O   VAL A  10     -33.361   4.811 -14.558  1.00  0.00    -0.344 OA
ATOM     77  CB  VAL A  10     -35.016   5.367 -17.163  1.00  0.00    +0.022 C 
ATOM     78  CG1 VAL A  10     -35.293   5.138 -18.647  1.00  0.00    +0.002 C 
ATOM     79  CG2 VAL A  10     -36.304   5.866 -16.513  1.00  0.00    +0.002 C 
ATOM     80  N   PHE A  11     -35.407   3.939 -14.233  1.00  0.00    -0.185 NA
ATOM     81  CA  PHE A  11     -35.966   4.840 -13.229  1.00  0.00    +0.157 C 
ATOM     82  C   PHE A  11     -35.032   4.961 -12.036  1.00  0.00    +0.258 C 
ATOM     83  O   PHE A  11     -34.860   4.007 -11.280  1.00  0.00    -0.272 OA
ATOM     84  CB  PHE A  11     -37.327   4.354 -12.761  1.00  0.00    +0.053 C 
ATOM     85  CG  PHE A  11     -38.126   5.396 -12.035  1.00  0.00    -0.020 A 
ATOM     86  CD1 PHE A  11     -38.432   6.598 -12.661  1.00  0.00    -0.004 A 
ATOM     87  CE1 PHE A  11     -39.172   7.564 -11.989  1.00  0.00    -0.000 A 
ATOM     88  CD2 PHE A  11     -38.562   5.158 -10.737  1.00  0.00    -0.004 A 
ATOM     89  CE2 PHE A  11     -39.303   6.123 -10.065  1.00  0.00    -0.000 A 
ATOM     90  CZ  PHE A  11     -39.608   7.326 -10.690  1.00  0.00    -0.000 A 
ATOM     91  N   PHE A  12     -34.430   6.135 -11.867  1.00  0.00    -0.196 N 
ATOM     92  CA  PHE A  12     -33.971   6.571 -10.551  1.00  0.00    +0.177 C 
ATOM     93  C   PHE A  12     -34.994   7.488  -9.901  1.00  0.00    +0.262 C 
ATOM     94  O   PHE A  12     -35.169   7.463  -8.684  1.00  0.00    -0.271 OA
ATOM     95  CB  PHE A  12     -32.636   7.292 -10.654  1.00  0.00    +0.057 C 
ATOM     96  CG  PHE A  12     -32.253   7.662 -12.055  1.00  0.00    -0.020 A 
ATOM     97  CD1 PHE A  12     -32.914   8.698 -12.706  1.00  0.00    -0.004 A 
ATOM     98  CE1 PHE A  12     -32.559   9.041 -14.006  1.00  0.00    -0.000 A 
ATOM     99  CD2 PHE A  12     -31.237   6.970 -12.704  1.00  0.00    -0.004 A 
ATOM    100  CE2 PHE A  12     -30.882   7.314 -14.004  1.00  0.00    -0.000 A 
ATOM    101  CZ  PHE A  12     -31.542   8.349 -14.654  1.00  0.00    -0.000 A 
ATOM    102  N   ALA A  13     -35.669   8.298 -10.710  1.00  0.00    -0.196 N 
ATOM    103  CA  ALA A  13     -35.186   9.639 -11.020  1.00  0.00    +0.173 C 
ATOM    104  C   ALA A  13     -35.689  10.650 -10.001  1.00  0.00    +0.262 C 
ATOM    105  O   ALA A  13     -36.822  10.556  -9.534  1.00  0.00    -0.271 OA
ATOM    106  CB  ALA A  13     -35.625  10.065 -12.412  1.00  0.00    +0.033 C 
ATOM    107  N   GLU A  14     -34.842  11.617  -9.654  1.00  0.00    -0.196 N 
ATOM    108  CA  GLU A  14     -35.319  12.950  -9.294  1.00  0.00    +0.177 C 
ATOM    109  C   GLU A  14     -35.965  13.641 -10.483  1.00  0.00    +0.262 C 
ATOM    110  O   GLU A  14     -35.480  13.531 -11.609  1.00  0.00    -0.271 OA
ATOM    111  CB  GLU A  14     -34.181  13.807  -8.764  1.00  0.00    +0.087 C 
ATOM    112  CG  GLU A  14     -34.566  15.257  -8.518  1.00  0.00    +0.270 C 
ATOM    113  CD  GLU A  14     -33.962  15.832  -7.249  1.00  0.00    +0.391 C 
ATOM    114  OE1 GLU A  14     -33.979  17.070  -7.075  1.00  0.00    -0.290 OA
ATOM    115  OE2 GLU A  14     -33.466  15.038  -6.420  1.00  0.00    -0.243 OA
ATOM    116  N   SER A  15     -37.058  14.357 -10.236  1.00  0.00    -0.194 N 
ATOM    117  CA  SER A  15     -37.085  15.801 -10.449  1.00  0.00    +0.203 C 
ATOM    118  C   SER A  15     -36.146  16.517  -9.492  1.00  0.00    +0.219 C 
ATOM    119  O   SER A  15     -35.830  15.998  -8.422  1.00  0.00    -0.454 OA
ATOM    120  CB  SER A  15     -38.495  16.343 -10.277  1.00  0.00    +0.213 C 
ATOM    121  OG  SER A  15     -38.850  16.391  -8.907  1.00  0.00    -0.218 OA
ATOM    122  N   SER A  16     -35.699  17.711  -9.875  1.00  0.00    -0.235 NA
ATOM    123  CA  SER A  16     -34.677  18.420  -9.112  1.00  0.00    +0.187 C 
ATOM    124  C   SER A  16     -35.110  18.629  -7.669  1.00  0.00    +0.264 C 
ATOM    125  O   SER A  16     -34.275  18.679  -6.768  1.00  0.00    -0.152 OA
ATOM    126  CB  SER A  16     -34.370  19.766  -9.749  1.00  0.00    +0.210 C 
ATOM    127  OG  SER A  16     -35.508  20.608  -9.716  1.00  0.00    -0.218 OA
ATOM    128  N   ASP A  17     -36.415  18.752  -7.450  1.00  0.00    -0.178 NA
ATOM    129  CA  ASP A  17     -36.998  20.020  -7.020  1.00  0.00    +0.164 C 
ATOM    130  C   ASP A  17     -36.799  20.233  -5.529  1.00  0.00    +0.258 C 
ATOM    131  O   ASP A  17     -36.515  21.348  -5.090  1.00  0.00    -0.272 OA
ATOM    132  CB  ASP A  17     -38.483  20.073  -7.347  1.00  0.00    +0.141 C 
ATOM    133  CG  ASP A  17     -38.774  19.884  -8.826  1.00  0.00    +0.367 C 
ATOM    134  OD1 ASP A  17     -37.822  19.867  -9.637  1.00  0.00    -0.246 OA
ATOM    135  OD2 ASP A  17     -39.964  19.753  -9.182  1.00  0.00    -0.246 OA
ATOM    136  N   ALA A  18     -36.948  19.167  -4.748  1.00  0.00    -0.197 N 
ATOM    137  CA  ALA A  18     -38.024  19.088  -3.765  1.00  0.00    +0.173 C 
ATOM    138  C   ALA A  18     -37.473  18.834  -2.371  1.00  0.00    +0.262 C 
ATOM    139  O   ALA A  18     -36.873  17.790  -2.117  1.00  0.00    -0.271 OA
ATOM    140  CB  ALA A  18     -39.009  17.990  -4.130  1.00  0.00    +0.033 C 
ATOM    141  N   ILE A  19     -37.677  19.785  -1.466  1.00  0.00    -0.196 N 
ATOM    142  CA  ILE A  19     -36.847  19.888  -0.269  1.00  0.00    +0.173 C 
ATOM    143  C   ILE A  19     -37.657  19.488   0.953  1.00  0.00    +0.262 C 
ATOM    144  O   ILE A  19     -38.864  19.713   1.004  1.00  0.00    -0.271 OA
ATOM    145  CB  ILE A  19     -36.298  21.293  -0.077  1.00  0.00    +0.029 C 
ATOM    146  CG1 ILE A  19     -34.807  21.339  -0.402  1.00  0.00    +0.002 C 
ATOM    147  CG2 ILE A  19     -36.518  21.757   1.362  1.00  0.00    +0.002 C 
ATOM    148  CD1 ILE A  19     -34.203  22.733  -0.333  1.00  0.00    +0.000 C 
ATOM    149  N   ARG A  20     -36.992  18.894   1.940  1.00  0.00    -0.196 N 
ATOM    150  CA  ARG A  20     -37.543  18.819   3.291  1.00  0.00    +0.173 C 
ATOM    151  C   ARG A  20     -37.398  20.149   4.012  1.00  0.00    +0.262 C 
ATOM    152  O   ARG A  20     -36.453  20.895   3.761  1.00  0.00    -0.271 OA
ATOM    153  CB  ARG A  20     -36.860  17.726   4.095  1.00  0.00    +0.033 C 
ATOM    154  CG  ARG A  20     -37.489  16.353   3.927  1.00  0.00    +0.029 C 
ATOM    155  CD  ARG A  20     -36.648  15.263   4.569  1.00  0.00    +0.129 C 
ATOM    156  NE  ARG A  20     -37.357  13.987   4.610  1.00  0.00    -0.234 NA
ATOM    157  CZ  ARG A  20     -37.497  13.232   5.695  1.00  0.00    +0.284 C 
ATOM    158  NH1 ARG A  20     -37.088  13.668   6.882  1.00  0.00    -0.104 N 
ATOM    159  NH2 ARG A  20     -38.054  12.028   5.591  1.00  0.00    -0.104 N 
ATOM    160  N   ARG A  21     -38.332  20.446   4.911  1.00  0.00    -0.194 N 
ATOM    161  CA  ARG A  21     -38.090  21.425   5.965  1.00  0.00    +0.198 C 
ATOM    162  C   ARG A  21     -37.803  20.739   7.290  1.00  0.00    +0.384 C 
ATOM    163  O   ARG A  21     -36.690  20.820   7.810  1.00  0.00    -0.244 OA
ATOM    164  CB  ARG A  21     -39.278  22.359   6.124  1.00  0.00    +0.035 C 
ATOM    165  CG  ARG A  21     -39.044  23.488   7.113  1.00  0.00    +0.029 C 
ATOM    166  CD  ARG A  21     -39.153  24.851   6.450  1.00  0.00    +0.129 C 
ATOM    167  NE  ARG A  21     -38.070  25.077   5.497  1.00  0.00    -0.234 NA
ATOM    168  CZ  ARG A  21     -37.760  26.256   4.966  1.00  0.00    +0.284 C 
ATOM    169  NH1 ARG A  21     -37.027  26.328   3.859  1.00  0.00    -0.104 N 
ATOM    170  NH2 ARG A  21     -38.188  27.373   5.548  1.00  0.00    -0.104 N 
ATOM    171  OXT ARG A  21     -38.679  20.092   7.862  1.00  0.00    -0.244 OA
ATOM    172  H   MET A   1     -22.313   5.153  -3.157  1.00  0.00    +0.000 HD
ATOM    173  H   MET A   1     -22.407   6.372  -4.289  1.00  0.00    +0.000 HD
ATOM    174  H   LYS A   2     -22.024   2.983  -6.912  1.00  0.00    +0.000 HD
ATOM    175  H   LYS A   2     -23.262   0.462 -11.896  1.00  0.00    +0.000 HD
ATOM    176  H   LEU A   3     -23.825   5.939 -10.098  1.00  0.00    +0.000 HD
ATOM    177  H   ALA A   4     -24.369   2.396 -12.829  1.00  0.00    +0.000 HD
ATOM    178  H   VAL A   5     -24.908   5.709 -15.548  1.00  0.00    +0.000 HD
ATOM    179  H   PHE A   6     -28.674   3.195 -16.062  1.00  0.00    +0.000 HD
ATOM    180  H   ALA A   7     -28.799   4.342 -20.457  1.00  0.00    +0.000 HD
ATOM    181  H   LEU A   8     -30.921   2.856 -20.531  1.00  0.00    +0.000 HD
ATOM    182  H   ARG A   9     -28.527   2.201 -16.218  1.00  0.00    +0.000 HD
ATOM    183  H   ARG A   9     -26.868   1.833 -16.359  1.00  0.00    +0.000 HD
ATOM    184  H   ARG A   9     -27.233  -1.540 -15.590  1.00  0.00    +0.000 HD
ATOM    185  H   ARG A   9     -26.127  -0.308 -15.999  1.00  0.00    +0.000 HD
ATOM    186  H   VAL A  10     -36.445   3.170 -16.813  1.00  0.00    +0.000 HD
ATOM    187  H   PHE A  11     -36.174   3.697 -14.862  1.00  0.00    +0.000 HD
ATOM    188  H   PHE A  12     -34.291   6.722 -12.645  1.00  0.00    +0.000 HD
ATOM    189  H   ALA A  13     -36.513   7.985 -11.110  1.00  0.00    +0.000 HD
ATOM    190  H   GLU A  14     -33.876  11.430  -9.639  1.00  0.00    +0.000 HD
ATOM    191  H   SER A  15     -37.866  13.904  -9.902  1.00  0.00    +0.000 HD
ATOM    192  H   SER A  15     -38.239  16.977  -8.435  1.00  0.00    +0.000 HD
ATOM    193  H   SER A  16     -35.771  20.759  -8.795  1.00  0.00    +0.000 HD
ATOM    194  H   ASP A  17     -36.879  18.504  -8.325  1.00  0.00    +0.000 HD
ATOM    195  H   ASP A  17     -36.943  19.969  -9.331  1.00  0.00    +0.000 HD
ATOM    196  H   ALA A  18     -36.318  18.415  -4.834  1.00  0.00    +0.000 HD
ATOM    197  H   ILE A  19     -38.403  20.435  -1.605  1.00  0.00    +0.000 HD
ATOM    198  H   ARG A  20     -36.110  18.497   1.757  1.00  0.00    +0.000 HD
ATOM    199  H   ARG A  20     -36.675  14.558   6.964  1.00  0.00    +0.000 HD
ATOM    200  H   ARG A  20     -37.197  13.101   7.679  1.00  0.00    +0.000 HD
ATOM    201  H   ARG A  20     -38.161  11.464   6.391  1.00  0.00    +0.000 HD
ATOM    202  H   ARG A  20     -38.359  11.701   4.714  1.00  0.00    +0.000 HD
ATOM    203  H   ARG A  21     -39.206  19.995   4.864  1.00  0.00    +0.000 HD
ATOM    204  H   ARG A  21     -36.011  21.309   7.388  1.00  0.00    +0.000 HD
ATOM    205  H   ARG A  21     -36.802  27.206   3.474  1.00  0.00    +0.000 HD
ATOM    206  H   ARG A  21     -36.709  25.505   3.425  1.00  0.00    +0.000 HD
ATOM    207  H   ARG A  21     -38.731  27.324   6.368  1.00  0.00    +0.000 HD
ATOM    208  H   ARG A  21     -37.962  28.249   5.160  1.00  0.00    +0.000 HD
ENDROOT
TORSDOF 0
