REMARK  Name = /var/folders/yp/yjbh3p597675h2qddgqr02y00000gn/T/tmpfu877zhv.pdb
REMARK   1 CREATED WITH OPENMM 8.6.1, 2026-10-07
REMARK                            x       y       z     vdW  Elec       q    Type
REMARK                         _______ _______ _______ _____ _____    ______ ____
ROOT
ATOM      1  N   MET A   1     -27.533  -5.032  -2.071  1.00  0.00    -0.123 NA
ATOM      2  CA  MET A   1     -28.824  -4.550  -1.536  1.00  0.00    +0.170 C 
ATOM      3  C   MET A   1     -29.342  -5.487  -0.444  1.00  0.00    +0.259 C 
ATOM      4  O   MET A   1     -29.480  -6.685  -0.680  1.00  0.00    -0.272 OA
ATOM      5  CB  MET A   1     -29.862  -4.437  -2.666  1.00  0.00    +0.040 C 
ATOM      6  CG  MET A   1     -31.057  -3.622  -2.246  1.00  0.00    +0.060 C 
ATOM      7  SD  MET A   1     -32.237  -3.135  -3.527  1.00  0.00    -0.139 S 
ATOM      8  CE  MET A   1     -33.641  -2.521  -2.546  1.00  0.00    +0.069 C 
ATOM      9  N   LYS A   2     -29.623  -4.986   0.757  1.00  0.00    -0.197 N 
ATOM     10  CA  LYS A   2     -28.854  -3.904   1.389  1.00  0.00    +0.173 C 
ATOM     11  C   LYS A   2     -28.168  -4.411   2.646  1.00  0.00    +0.262 C 
ATOM     12  O   LYS A   2     -28.711  -5.251   3.363  1.00  0.00    -0.271 OA
ATOM     13  CB  LYS A   2     -29.739  -2.694   1.725  1.00  0.00    +0.031 C 
ATOM     14  CG  LYS A   2     -29.686  -1.623   0.626  1.00  0.00    +0.004 C 
ATOM     15  CD  LYS A   2     -31.019  -1.498  -0.088  1.00  0.00    +0.021 C 
ATOM     16  CE  LYS A   2     -31.104  -0.361  -1.126  1.00  0.00    +0.109 C 
ATOM     17  NZ  LYS A   2     -30.719  -0.538  -2.547  1.00  0.00    -0.131 NA
ATOM     18  N   LEU A   3     -26.995  -3.847   2.924  1.00  0.00    -0.196 N 
ATOM     19  CA  LEU A   3     -26.501  -3.768   4.290  1.00  0.00    +0.173 C 
ATOM     20  C   LEU A   3     -27.246  -2.658   5.034  1.00  0.00    +0.262 C 
ATOM     21  O   LEU A   3     -27.450  -1.557   4.517  1.00  0.00    -0.271 OA
ATOM     22  CB  LEU A   3     -24.994  -3.473   4.325  1.00  0.00    +0.031 C 
ATOM     23  CG  LEU A   3     -24.086  -4.639   3.894  1.00  0.00    +0.002 C 
ATOM     24  CD1 LEU A   3     -22.975  -4.851   4.918  1.00  0.00    +0.000 C 
ATOM     25  CD2 LEU A   3     -23.352  -4.315   2.596  1.00  0.00    +0.000 C 
ATOM     26  N   ALA A   4     -27.586  -2.942   6.278  1.00  0.00    -0.196 N 
ATOM     27  CA  ALA A   4     -27.777  -1.935   7.300  1.00  0.00    +0.173 C 
ATOM     28  C   ALA A   4     -26.482  -1.160   7.576  1.00  0.00    +0.262 C 
ATOM     29  O   ALA A   4     -25.397  -1.745   7.575  1.00  0.00    -0.271 OA
ATOM     30  CB  ALA A   4     -28.119  -2.741   8.556  1.00  0.00    +0.033 C 
ATOM     31  N   VAL A   5     -26.634   0.107   7.963  1.00  0.00    -0.196 N 
ATOM     32  CA  VAL A   5     -26.244   0.545   9.313  1.00  0.00    +0.173 C 
ATOM     33  C   VAL A   5     -27.460   1.200   9.966  1.00  0.00    +0.262 C 
ATOM     34  O   VAL A   5     -27.626   2.420   9.924  1.00  0.00    -0.271 OA
ATOM     35  CB  VAL A   5     -25.042   1.503   9.325  1.00  0.00    +0.029 C 
ATOM     36  CG1 VAL A   5     -24.456   1.575  10.741  1.00  0.00    +0.002 C 
ATOM     37  CG2 VAL A   5     -23.938   1.060   8.368  1.00  0.00    +0.002 C 
ATOM     38  N   PHE A   6     -28.367   0.388  10.509  1.00  0.00    -0.196 N 
ATOM     39  CA  PHE A   6     -29.636   0.905  11.037  1.00  0.00    +0.177 C 
ATOM     40  C   PHE A   6     -29.428   1.577  12.384  1.00  0.00    +0.262 C 
ATOM     41  O   PHE A   6     -29.900   2.694  12.603  1.00  0.00    -0.271 OA
ATOM     42  CB  PHE A   6     -30.678  -0.213  11.201  1.00  0.00    +0.057 C 
ATOM     43  CG  PHE A   6     -31.376  -0.611   9.924  1.00  0.00    -0.020 A 
ATOM     44  CD1 PHE A   6     -30.672  -1.287   8.952  1.00  0.00    -0.004 A 
ATOM     45  CE1 PHE A   6     -31.243  -1.747   7.760  1.00  0.00    -0.000 A 
ATOM     46  CD2 PHE A   6     -32.696  -0.251   9.656  1.00  0.00    -0.004 A 
ATOM     47  CE2 PHE A   6     -33.286  -0.635   8.440  1.00  0.00    -0.000 A 
ATOM     48  CZ  PHE A   6     -32.573  -1.406   7.504  1.00  0.00    -0.000 A 
ATOM     49  N   ALA A   7     -28.766   0.855  13.297  1.00  0.00    -0.196 N 
ATOM     50  CA  ALA A   7     -29.501   0.242  14.410  1.00  0.00    +0.173 C 
ATOM     51  C   ALA A   7     -30.145   1.256  15.349  1.00  0.00    +0.262 C 
ATOM     52  O   ALA A   7     -31.120   0.943  16.032  1.00  0.00    -0.271 OA
ATOM     53  CB  ALA A   7     -28.538  -0.657  15.195  1.00  0.00    +0.033 C 
ATOM     54  N   LEU A   8     -29.589   2.464  15.400  1.00  0.00    -0.196 N 
ATOM     55  CA  LEU A   8     -29.951   3.457  16.399  1.00  0.00    +0.173 C 
ATOM     56  C   LEU A   8     -31.322   4.045  16.123  1.00  0.00    +0.262 C 
ATOM     57  O   LEU A   8     -32.098   4.284  17.047  1.00  0.00    -0.271 OA
ATOM     58  CB  LEU A   8     -28.919   4.596  16.410  1.00  0.00    +0.031 C 
ATOM     59  CG  LEU A   8     -27.608   4.280  17.145  1.00  0.00    +0.002 C 
ATOM     60  CD1 LEU A   8     -26.778   5.554  17.268  1.00  0.00    +0.000 C 
ATOM     61  CD2 LEU A   8     -26.717   3.306  16.379  1.00  0.00    +0.000 C 
ATOM     62  N   ARG A   9     -31.576   4.346  14.852  1.00  0.00    -0.196 N 
ATOM     63  CA  ARG A   9     -32.321   5.552  14.507  1.00  0.00    +0.173 C 
ATOM     64  C   ARG A   9     -33.748   5.532  15.022  1.00  0.00    +0.262 C 
ATOM     65  O   ARG A   9     -34.333   6.558  15.295  1.00  0.00    -0.271 OA
ATOM     66  CB  ARG A   9     -32.250   5.667  12.996  1.00  0.00    +0.033 C 
ATOM     67  CG  ARG A   9     -32.681   7.014  12.486  1.00  0.00    +0.029 C 
ATOM     68  CD  ARG A   9     -34.171   7.088  12.311  1.00  0.00    +0.129 C 
ATOM     69  NE  ARG A   9     -34.696   8.203  11.522  1.00  0.00    -0.234 NA
ATOM     70  CZ  ARG A   9     -34.135   8.859  10.557  1.00  0.00    +0.284 C 
ATOM     71  NH1 ARG A   9     -32.874   8.777  10.285  1.00  0.00    -0.104 N 
ATOM     72  NH2 ARG A   9     -34.832   9.652   9.812  1.00  0.00    -0.104 N 
ATOM     73  N   VAL A  10     -34.317   4.351  15.159  1.00  0.00    -0.196 N 
ATOM     74  CA  VAL A  10     -35.423   3.942  14.311  1.00  0.00    +0.173 C 
ATOM     75  C   VAL A  10     -36.748   3.987  15.079  1.00  0.00    +0.262 C 
ATOM     76  O   VAL A  10     -36.817   3.546  16.223  1.00  0.00    -0.271 OA
ATOM     77  CB  VAL A  10     -35.195   2.537  13.717  1.00  0.00    +0.029 C 
ATOM     78  CG1 VAL A  10     -35.501   2.505  12.212  1.00  0.00    +0.002 C 
ATOM     79  CG2 VAL A  10     -33.756   2.033  13.890  1.00  0.00    +0.002 C 
ATOM     80  N   PHE A  11     -37.824   4.477  14.470  1.00  0.00    -0.196 N 
ATOM     81  CA  PHE A  11     -37.785   5.071  13.140  1.00  0.00    +0.177 C 
ATOM     82  C   PHE A  11     -37.137   6.419  13.135  1.00  0.00    +0.262 C 
ATOM     83  O   PHE A  11     -36.672   6.752  12.078  1.00  0.00    -0.271 OA
ATOM     84  CB  PHE A  11     -39.175   5.242  12.540  1.00  0.00    +0.057 C 
ATOM     85  CG  PHE A  11     -39.392   4.333  11.361  1.00  0.00    -0.020 A 
ATOM     86  CD1 PHE A  11     -39.836   3.024  11.591  1.00  0.00    -0.004 A 
ATOM     87  CE1 PHE A  11     -40.078   2.168  10.507  1.00  0.00    -0.000 A 
ATOM     88  CD2 PHE A  11     -39.157   4.785  10.050  1.00  0.00    -0.004 A 
ATOM     89  CE2 PHE A  11     -39.400   3.925   8.966  1.00  0.00    -0.000 A 
ATOM     90  CZ  PHE A  11     -39.867   2.620   9.196  1.00  0.00    -0.000 A 
ATOM     91  N   PHE A  12     -37.242   7.208  14.198  1.00  0.00    -0.196 N 
ATOM     92  CA  PHE A  12     -37.346   8.656  14.033  1.00  0.00    +0.177 C 
ATOM     93  C   PHE A  12     -36.009   9.379  14.029  1.00  0.00    +0.262 C 
ATOM     94  O   PHE A  12     -35.777  10.276  13.220  1.00  0.00    -0.271 OA
ATOM     95  CB  PHE A  12     -38.206   9.228  15.173  1.00  0.00    +0.057 C 
ATOM     96  CG  PHE A  12     -39.577   9.657  14.731  1.00  0.00    -0.020 A 
ATOM     97  CD1 PHE A  12     -39.710  10.569  13.670  1.00  0.00    -0.004 A 
ATOM     98  CE1 PHE A  12     -40.985  10.984  13.261  1.00  0.00    -0.000 A 
ATOM     99  CD2 PHE A  12     -40.714   9.177  15.398  1.00  0.00    -0.004 A 
ATOM    100  CE2 PHE A  12     -41.989   9.601  14.993  1.00  0.00    -0.000 A 
ATOM    101  CZ  PHE A  12     -42.124  10.501  13.925  1.00  0.00    -0.000 A 
ATOM    102  N   ALA A  13     -35.167   9.016  14.979  1.00  0.00    -0.196 N 
ATOM    103  CA  ALA A  13     -34.851   9.867  16.106  1.00  0.00    +0.173 C 
ATOM    104  C   ALA A  13     -33.409  10.346  16.058  1.00  0.00    +0.262 C 
ATOM    105  O   ALA A  13     -32.494   9.607  15.684  1.00  0.00    -0.271 OA
ATOM    106  CB  ALA A  13     -35.128   9.091  17.402  1.00  0.00    +0.033 C 
ATOM    107  N   GLU A  14     -33.200  11.587  16.481  1.00  0.00    -0.196 N 
ATOM    108  CA  GLU A  14     -31.859  12.107  16.726  1.00  0.00    +0.173 C 
ATOM    109  C   GLU A  14     -31.224  11.403  17.926  1.00  0.00    +0.262 C 
ATOM    110  O   GLU A  14     -31.913  11.050  18.890  1.00  0.00    -0.271 OA
ATOM    111  CB  GLU A  14     -31.921  13.618  16.942  1.00  0.00    +0.043 C 
ATOM    112  CG  GLU A  14     -30.639  14.179  17.573  1.00  0.00    +0.116 C 
ATOM    113  CD  GLU A  14     -30.666  15.692  17.739  1.00  0.00    +0.365 C 
ATOM    114  OE1 GLU A  14     -31.750  16.315  17.639  1.00  0.00    -0.246 OA
ATOM    115  OE2 GLU A  14     -29.590  16.281  17.989  1.00  0.00    -0.246 OA
ATOM    116  N   SER A  15     -29.905  11.218  17.872  1.00  0.00    -0.194 N 
ATOM    117  CA  SER A  15     -29.183  10.465  18.895  1.00  0.00    +0.205 C 
ATOM    118  C   SER A  15     -29.382  11.048  20.294  1.00  0.00    +0.264 C 
ATOM    119  O   SER A  15     -29.473  12.266  20.478  1.00  0.00    -0.271 OA
ATOM    120  CB  SER A  15     -27.691  10.395  18.562  1.00  0.00    +0.213 C 
ATOM    121  OG  SER A  15     -27.055  11.647  18.752  1.00  0.00    -0.218 OA
ATOM    122  N   SER A  16     -29.415  10.170  21.297  1.00  0.00    -0.194 N 
ATOM    123  CA  SER A  16     -29.167  10.578  22.677  1.00  0.00    +0.205 C 
ATOM    124  C   SER A  16     -27.707  11.003  22.826  1.00  0.00    +0.264 C 
ATOM    125  O   SER A  16     -26.783  10.290  22.421  1.00  0.00    -0.271 OA
ATOM    126  CB  SER A  16     -29.490   9.445  23.651  1.00  0.00    +0.213 C 
ATOM    127  OG  SER A  16     -28.579   8.367  23.517  1.00  0.00    -0.218 OA
ATOM    128  N   ASP A  17     -27.482  12.180  23.401  1.00  0.00    -0.196 N 
ATOM    129  CA  ASP A  17     -26.125  12.719  23.541  1.00  0.00    +0.184 C 
ATOM    130  C   ASP A  17     -25.453  12.257  24.831  1.00  0.00    +0.262 C 
ATOM    131  O   ASP A  17     -24.225  12.237  24.928  1.00  0.00    -0.271 OA
ATOM    132  CB  ASP A  17     -26.175  14.252  23.516  1.00  0.00    +0.145 C 
ATOM    133  CG  ASP A  17     -26.704  14.823  22.198  1.00  0.00    +0.367 C 
ATOM    134  OD1 ASP A  17     -26.769  14.097  21.182  1.00  0.00    -0.246 OA
ATOM    135  OD2 ASP A  17     -27.030  16.031  22.164  1.00  0.00    -0.246 OA
ATOM    136  N   ALA A  18     -26.273  11.951  25.837  1.00  0.00    -0.196 N 
ATOM    137  CA  ALA A  18     -26.103  12.522  27.168  1.00  0.00    +0.173 C 
ATOM    138  C   ALA A  18     -25.917  11.432  28.214  1.00  0.00    +0.262 C 
ATOM    139  O   ALA A  18     -26.874  10.778  28.641  1.00  0.00    -0.271 OA
ATOM    140  CB  ALA A  18     -27.325  13.394  27.477  1.00  0.00    +0.033 C 
ATOM    141  N   ILE A  19     -24.661  11.204  28.579  1.00  0.00    -0.196 N 
ATOM    142  CA  ILE A  19     -24.217   9.913  29.097  1.00  0.00    +0.173 C 
ATOM    143  C   ILE A  19     -23.996   9.973  30.598  1.00  0.00    +0.262 C 
ATOM    144  O   ILE A  19     -23.336  10.885  31.104  1.00  0.00    -0.271 OA
ATOM    145  CB  ILE A  19     -22.942   9.462  28.354  1.00  0.00    +0.029 C 
ATOM    146  CG1 ILE A  19     -23.296   9.011  26.926  1.00  0.00    +0.002 C 
ATOM    147  CG2 ILE A  19     -22.229   8.329  29.103  1.00  0.00    +0.002 C 
ATOM    148  CD1 ILE A  19     -22.095   8.496  26.123  1.00  0.00    +0.000 C 
ATOM    149  N   ARG A  20     -24.477   8.949  31.305  1.00  0.00    -0.196 N 
ATOM    150  CA  ARG A  20     -24.017   8.662  32.664  1.00  0.00    +0.173 C 
ATOM    151  C   ARG A  20     -22.664   7.954  32.646  1.00  0.00    +0.262 C 
ATOM    152  O   ARG A  20     -22.426   7.069  31.820  1.00  0.00    -0.271 OA
ATOM    153  CB  ARG A  20     -25.050   7.834  33.435  1.00  0.00    +0.033 C 
ATOM    154  CG  ARG A  20     -25.209   6.399  32.901  1.00  0.00    +0.029 C 
ATOM    155  CD  ARG A  20     -25.959   5.510  33.885  1.00  0.00    +0.129 C 
ATOM    156  NE  ARG A  20     -27.252   5.086  33.336  1.00  0.00    -0.234 NA
ATOM    157  CZ  ARG A  20     -28.406   5.108  33.971  1.00  0.00    +0.284 C 
ATOM    158  NH1 ARG A  20     -28.495   5.411  35.237  1.00  0.00    -0.104 N 
ATOM    159  NH2 ARG A  20     -29.503   4.827  33.329  1.00  0.00    -0.104 N 
ATOM    160  N   ARG A  21     -21.815   8.273  33.619  1.00  0.00    -0.194 N 
ATOM    161  CA  ARG A  21     -20.779   7.350  34.092  1.00  0.00    +0.198 C 
ATOM    162  C   ARG A  21     -21.205   6.686  35.393  1.00  0.00    +0.384 C 
ATOM    163  O   ARG A  21     -21.133   5.447  35.493  1.00  0.00    -0.244 OA
ATOM    164  CB  ARG A  21     -19.439   8.082  34.221  1.00  0.00    +0.035 C 
ATOM    165  CG  ARG A  21     -18.310   7.164  34.714  1.00  0.00    +0.029 C 
ATOM    166  CD  ARG A  21     -18.280   5.777  34.056  1.00  0.00    +0.129 C 
ATOM    167  NE  ARG A  21     -18.238   5.843  32.588  1.00  0.00    -0.234 NA
ATOM    168  CZ  ARG A  21     -18.343   4.810  31.779  1.00  0.00    +0.284 C 
ATOM    169  NH1 ARG A  21     -18.403   3.586  32.224  1.00  0.00    -0.104 N 
ATOM    170  NH2 ARG A  21     -18.388   4.996  30.492  1.00  0.00    -0.104 N 
ATOM    171  OXT ARG A  21     -21.621   7.403  36.321  1.00  0.00    -0.244 OA
ATOM    172  H   MET A   1     -26.855  -5.102  -1.312  1.00  0.00    +0.000 HD
ATOM    173  H   MET A   1     -27.191  -4.376  -2.774  1.00  0.00    +0.000 HD
ATOM    174  H   LYS A   2     -30.389  -5.361   1.249  1.00  0.00    +0.000 HD
ATOM    175  H   LYS A   2     -31.382  -1.166  -3.002  1.00  0.00    +0.000 HD
ATOM    176  H   LYS A   2     -29.782  -0.936  -2.598  1.00  0.00    +0.000 HD
ATOM    177  H   LEU A   3     -26.452  -3.476   2.192  1.00  0.00    +0.000 HD
ATOM    178  H   ALA A   4     -27.716  -3.886   6.523  1.00  0.00    +0.000 HD
ATOM    179  H   VAL A   5     -27.014   0.762   7.334  1.00  0.00    +0.000 HD
ATOM    180  H   PHE A   6     -28.182  -0.578  10.557  1.00  0.00    +0.000 HD
ATOM    181  H   ALA A   7     -27.792   0.735  13.221  1.00  0.00    +0.000 HD
ATOM    182  H   LEU A   8     -28.904   2.695  14.733  1.00  0.00    +0.000 HD
ATOM    183  H   ARG A   9     -31.259   3.748  14.136  1.00  0.00    +0.000 HD
ATOM    184  H   ARG A   9     -32.497   9.298   9.539  1.00  0.00    +0.000 HD
ATOM    185  H   ARG A   9     -32.291   8.195  10.822  1.00  0.00    +0.000 HD
ATOM    186  H   ARG A   9     -34.399  10.148   9.080  1.00  0.00    +0.000 HD
ATOM    187  H   ARG A   9     -35.797   9.761   9.976  1.00  0.00    +0.000 HD
ATOM    188  H   VAL A  10     -33.985   3.734  15.851  1.00  0.00    +0.000 HD
ATOM    189  H   PHE A  11     -38.688   4.436  14.940  1.00  0.00    +0.000 HD
ATOM    190  H   PHE A  12     -37.250   6.815  15.101  1.00  0.00    +0.000 HD
ATOM    191  H   ALA A  13     -34.737   8.132  14.918  1.00  0.00    +0.000 HD
ATOM    192  H   GLU A  14     -33.974  12.176  16.635  1.00  0.00    +0.000 HD
ATOM    193  H   GLU A  14     -32.542  15.851  17.451  1.00  0.00    +0.000 HD
ATOM    194  H   SER A  15     -29.400  11.602  17.119  1.00  0.00    +0.000 HD
ATOM    195  H   SER A  15     -27.136  11.913  19.681  1.00  0.00    +0.000 HD
ATOM    196  H   SER A  16     -29.612   9.225  21.103  1.00  0.00    +0.000 HD
ATOM    197  H   SER A  16     -27.681   8.676  23.713  1.00  0.00    +0.000 HD
ATOM    198  H   ASP A  17     -28.245  12.702  23.740  1.00  0.00    +0.000 HD
ATOM    199  H   ASP A  17     -26.972  16.555  22.939  1.00  0.00    +0.000 HD
ATOM    200  H   ALA A  18     -27.014  11.324  25.677  1.00  0.00    +0.000 HD
ATOM    201  H   ILE A  19     -24.004  11.934  28.498  1.00  0.00    +0.000 HD
ATOM    202  H   ARG A  20     -25.162   8.368  30.900  1.00  0.00    +0.000 HD
ATOM    203  H   ARG A  20     -27.683   5.628  35.750  1.00  0.00    +0.000 HD
ATOM    204  H   ARG A  20     -29.375   5.422  35.680  1.00  0.00    +0.000 HD
ATOM    205  H   ARG A  20     -29.468   4.595  32.373  1.00  0.00    +0.000 HD
ATOM    206  H   ARG A  20     -30.368   4.848  33.800  1.00  0.00    +0.000 HD
ATOM    207  H   ARG A  21     -21.886   9.162  34.036  1.00  0.00    +0.000 HD
ATOM    208  H   ARG A  21     -18.480   2.836  31.592  1.00  0.00    +0.000 HD
ATOM    209  H   ARG A  21     -18.370   3.413  33.192  1.00  0.00    +0.000 HD
ATOM    210  H   ARG A  21     -18.345   5.908  30.125  1.00  0.00    +0.000 HD
ATOM    211  H   ARG A  21     -18.465   4.224  29.886  1.00  0.00    +0.000 HD
ATOM    212  H   ARG A  21     -21.663   8.332  36.212  1.00  0.00    +0.000 HD
ENDROOT
TORSDOF 0
