REMARK  Name = /var/folders/yp/yjbh3p597675h2qddgqr02y00000gn/T/tmpegoru4uf.pdb
REMARK     285 UNITARY VALUES FOR THE UNIT CELL AUTOMATICALLY SET
REMARK     285 BY MDANALYSIS PDBWRITER BECAUSE UNIT CELL INFORMATION
REMARK     285 WAS MISSING.
REMARK     285 PROTEIN DATA BANK CONVENTIONS REQUIRE THAT
REMARK     285 CRYST1 RECORD IS INCLUDED, BUT THE VALUES ON
REMARK     285 THIS RECORD ARE MEANINGLESS.
REMARK     285 UNITARY VALUES FOR THE UNIT CELL AUTOMATICALLY SET
REMARK     285 BY MDANALYSIS PDBWRITER BECAUSE UNIT CELL INFORMATION
REMARK     285 WAS MISSING.
REMARK     285 PROTEIN DATA BANK CONVENTIONS REQUIRE THAT
REMARK     285 CRYST1 RECORD IS INCLUDED, BUT THE VALUES ON
REMARK     285 THIS RECORD ARE MEANINGLESS.
REMARK                            x       y       z     vdW  Elec       q    Type
REMARK                         _______ _______ _______ _____ _____    ______ ____
ROOT
ATOM      1  N   MET A   1      -7.661  -9.948 -33.292  1.00  0.00    -0.123 NA
ATOM      2  CA  MET A   1      -8.992 -10.536 -33.167  1.00  0.00    +0.170 C 
ATOM      3  C   MET A   1     -10.040  -9.461 -32.924  1.00  0.00    +0.259 C 
ATOM      4  O   MET A   1      -9.707  -8.339 -32.547  1.00  0.00    -0.272 OA
ATOM      5  CB  MET A   1      -9.034 -11.549 -32.034  1.00  0.00    +0.040 C 
ATOM      6  CG  MET A   1      -8.014 -12.666 -32.178  1.00  0.00    +0.060 C 
ATOM      7  SD  MET A   1      -6.482 -12.117 -32.969  1.00  0.00    -0.139 S 
ATOM      8  CE  MET A   1      -5.519 -13.624 -32.903  1.00  0.00    +0.069 C 
ATOM      9  N   LYS A   2     -11.307  -9.803 -33.142  1.00  0.00    -0.197 N 
ATOM     10  CA  LYS A   2     -12.381  -8.817 -33.083  1.00  0.00    +0.173 C 
ATOM     11  C   LYS A   2     -12.614  -8.346 -31.656  1.00  0.00    +0.262 C 
ATOM     12  O   LYS A   2     -12.584  -9.147 -30.722  1.00  0.00    -0.271 OA
ATOM     13  CB  LYS A   2     -13.672  -9.387 -33.646  1.00  0.00    +0.031 C 
ATOM     14  CG  LYS A   2     -13.689  -9.491 -35.162  1.00  0.00    +0.009 C 
ATOM     15  CD  LYS A   2     -14.939 -10.192 -35.666  1.00  0.00    +0.049 C 
ATOM     16  CE  LYS A   2     -16.040  -9.254 -35.872  1.00  0.00    +0.096 C 
ATOM     17  NZ  LYS A   2     -17.021  -9.033 -35.002  1.00  0.00    -0.151 NA
ATOM     18  N   LEU A   3     -12.846  -7.048 -31.487  1.00  0.00    -0.196 N 
ATOM     19  CA  LEU A   3     -13.996  -6.575 -30.720  1.00  0.00    +0.173 C 
ATOM     20  C   LEU A   3     -15.297  -6.906 -31.434  1.00  0.00    +0.262 C 
ATOM     21  O   LEU A   3     -15.396  -6.755 -32.651  1.00  0.00    -0.271 OA
ATOM     22  CB  LEU A   3     -13.911  -5.075 -30.491  1.00  0.00    +0.031 C 
ATOM     23  CG  LEU A   3     -12.819  -4.602 -29.531  1.00  0.00    +0.002 C 
ATOM     24  CD1 LEU A   3     -12.930  -3.098 -29.303  1.00  0.00    +0.000 C 
ATOM     25  CD2 LEU A   3     -11.456  -4.632 -30.213  1.00  0.00    +0.000 C 
ATOM     26  N   ALA A   4     -16.293  -7.360 -30.680  1.00  0.00    -0.196 N 
ATOM     27  CA  ALA A   4     -17.594  -6.699 -30.659  1.00  0.00    +0.171 C 
ATOM     28  C   ALA A   4     -17.479  -5.282 -30.123  1.00  0.00    +0.246 C 
ATOM     29  O   ALA A   4     -16.559  -4.979 -29.364  1.00  0.00    -0.273 OA
ATOM     30  CB  ALA A   4     -18.585  -7.484 -29.813  1.00  0.00    +0.033 C 
ATOM     31  N   PRO A   5     -18.411  -4.417 -30.515  1.00  0.00    -0.272 N 
ATOM     32  CA  PRO A   5     -19.075  -3.533 -29.563  1.00  0.00    +0.154 C 
ATOM     33  C   PRO A   5     -20.567  -3.398 -29.828  1.00  0.00    +0.260 C 
ATOM     34  O   PRO A   5     -21.101  -4.040 -30.731  1.00  0.00    -0.272 OA
ATOM     35  CB  PRO A   5     -18.399  -2.188 -29.777  1.00  0.00    +0.031 C 
ATOM     36  CG  PRO A   5     -17.994  -2.205 -31.211  1.00  0.00    +0.024 C 
ATOM     37  CD  PRO A   5     -17.624  -3.632 -31.492  1.00  0.00    +0.094 C 
ATOM     38  N   PHE A   6     -21.239  -2.564 -29.041  1.00  0.00    -0.196 N 
ATOM     39  CA  PHE A   6     -22.596  -2.136 -29.369  1.00  0.00    +0.177 C 
ATOM     40  C   PHE A   6     -22.570  -0.954 -30.324  1.00  0.00    +0.262 C 
ATOM     41  O   PHE A   6     -21.884   0.036 -30.076  1.00  0.00    -0.271 OA
ATOM     42  CB  PHE A   6     -23.364  -1.757 -28.112  1.00  0.00    +0.057 C 
ATOM     43  CG  PHE A   6     -22.852  -0.518 -27.440  1.00  0.00    -0.020 A 
ATOM     44  CD1 PHE A   6     -21.681  -0.564 -26.695  1.00  0.00    -0.004 A 
ATOM     45  CE1 PHE A   6     -21.206   0.584 -26.073  1.00  0.00    -0.000 A 
ATOM     46  CD2 PHE A   6     -23.551   0.678 -27.562  1.00  0.00    -0.004 A 
ATOM     47  CE2 PHE A   6     -23.077   1.826 -26.939  1.00  0.00    -0.000 A 
ATOM     48  CZ  PHE A   6     -21.904   1.780 -26.195  1.00  0.00    -0.000 A 
ATOM     49  N   ALA A   7     -23.322  -1.055 -31.417  1.00  0.00    -0.196 N 
ATOM     50  CA  ALA A   7     -24.214   0.025 -31.830  1.00  0.00    +0.173 C 
ATOM     51  C   ALA A   7     -25.316   0.244 -30.807  1.00  0.00    +0.262 C 
ATOM     52  O   ALA A   7     -25.982  -0.705 -30.395  1.00  0.00    -0.271 OA
ATOM     53  CB  ALA A   7     -24.831  -0.273 -33.186  1.00  0.00    +0.033 C 
ATOM     54  N   LEU A   8     -25.511   1.494 -30.399  1.00  0.00    -0.196 N 
ATOM     55  CA  LEU A   8     -26.761   1.899 -29.762  1.00  0.00    +0.173 C 
ATOM     56  C   LEU A   8     -27.924   1.797 -30.737  1.00  0.00    +0.262 C 
ATOM     57  O   LEU A   8     -27.794   2.165 -31.903  1.00  0.00    -0.271 OA
ATOM     58  CB  LEU A   8     -26.663   3.324 -29.240  1.00  0.00    +0.031 C 
ATOM     59  CG  LEU A   8     -26.005   3.493 -27.869  1.00  0.00    +0.002 C 
ATOM     60  CD1 LEU A   8     -25.409   4.889 -27.738  1.00  0.00    +0.000 C 
ATOM     61  CD2 LEU A   8     -24.717   2.682 -27.789  1.00  0.00    +0.000 C 
ATOM     62  N   LEU A   9     -29.059   1.295 -30.259  1.00  0.00    -0.196 N 
ATOM     63  CA  LEU A   9     -30.308   1.391 -31.010  1.00  0.00    +0.173 C 
ATOM     64  C   LEU A   9     -31.306   2.282 -30.289  1.00  0.00    +0.262 C 
ATOM     65  O   LEU A   9     -31.421   2.231 -29.066  1.00  0.00    -0.271 OA
ATOM     66  CB  LEU A   9     -30.916   0.014 -31.220  1.00  0.00    +0.031 C 
ATOM     67  CG  LEU A   9     -31.802  -0.150 -32.456  1.00  0.00    +0.002 C 
ATOM     68  CD1 LEU A   9     -30.984   0.068 -33.723  1.00  0.00    +0.000 C 
ATOM     69  CD2 LEU A   9     -32.758   1.031 -32.590  1.00  0.00    +0.000 C 
ATOM     70  N   VAL A  10     -32.030   3.101 -31.047  1.00  0.00    -0.195 N 
ATOM     71  CA  VAL A  10     -33.489   3.041 -31.053  1.00  0.00    +0.192 C 
ATOM     72  C   VAL A  10     -33.982   2.681 -32.445  1.00  0.00    +0.263 C 
ATOM     73  O   VAL A  10     -33.519   3.239 -33.438  1.00  0.00    -0.271 OA
ATOM     74  CB  VAL A  10     -34.113   4.356 -30.619  1.00  0.00    +0.120 C 
ATOM     75  CG1 VAL A  10     -35.579   4.160 -30.240  1.00  0.00    +0.099 C 
ATOM     76  CG2 VAL A  10     -33.382   4.915 -29.400  1.00  0.00    +0.164 C 
ATOM     77  N   VAL A  11     -34.925   1.745 -32.520  1.00  0.00    -0.196 N 
ATOM     78  CA  VAL A  11     -36.113   1.795 -31.673  1.00  0.00    +0.173 C 
ATOM     79  C   VAL A  11     -35.860   1.026 -30.386  1.00  0.00    +0.262 C 
ATOM     80  O   VAL A  11     -35.490  -0.147 -30.421  1.00  0.00    -0.271 OA
ATOM     81  CB  VAL A  11     -37.335   1.222 -32.374  1.00  0.00    +0.029 C 
ATOM     82  CG1 VAL A  11     -38.572   2.068 -32.081  1.00  0.00    +0.002 C 
ATOM     83  CG2 VAL A  11     -37.122   1.206 -33.886  1.00  0.00    +0.002 C 
ATOM     84  N   PHE A  12     -36.059   1.685 -29.249  1.00  0.00    -0.196 N 
ATOM     85  CA  PHE A  12     -36.770   1.072 -28.129  1.00  0.00    +0.177 C 
ATOM     86  C   PHE A  12     -38.084   1.791 -27.868  1.00  0.00    +0.262 C 
ATOM     87  O   PHE A  12     -39.138   1.159 -27.801  1.00  0.00    -0.271 OA
ATOM     88  CB  PHE A  12     -35.920   1.097 -26.869  1.00  0.00    +0.057 C 
ATOM     89  CG  PHE A  12     -34.632   0.339 -26.993  1.00  0.00    -0.020 A 
ATOM     90  CD1 PHE A  12     -34.624  -1.045 -26.865  1.00  0.00    -0.004 A 
ATOM     91  CE1 PHE A  12     -33.428  -1.746 -26.981  1.00  0.00    -0.000 A 
ATOM     92  CD2 PHE A  12     -33.445   1.022 -27.234  1.00  0.00    -0.004 A 
ATOM     93  CE2 PHE A  12     -32.250   0.321 -27.348  1.00  0.00    -0.000 A 
ATOM     94  CZ  PHE A  12     -32.242  -1.064 -27.222  1.00  0.00    -0.000 A 
ATOM     95  N   ALA A  13     -38.024   3.110 -27.719  1.00  0.00    -0.196 N 
ATOM     96  CA  ALA A  13     -37.308   3.951 -28.676  1.00  0.00    +0.171 C 
ATOM     97  C   ALA A  13     -35.817   3.661 -28.650  1.00  0.00    +0.246 C 
ATOM     98  O   ALA A  13     -35.281   3.233 -27.627  1.00  0.00    -0.273 OA
ATOM     99  CB  ALA A  13     -37.543   5.422 -28.381  1.00  0.00    +0.033 C 
ATOM    100  N   GLY A  14     -35.143   3.891 -29.773  1.00  0.00    -0.276 N 
ATOM    101  CA  GLY A  14     -35.462   5.027 -30.633  1.00  0.00    +0.085 C 
ATOM    102  C   GLY A  14     -34.599   6.229 -30.285  1.00  0.00    +0.193 C 
ATOM    103  O   GLY A  14     -33.631   6.106 -29.535  1.00  0.00    -0.338 OA
ATOM    104  N   ALA A  15     -34.946   7.391 -30.830  1.00  0.00    -0.184 NA
ATOM    105  CA  ALA A  15     -33.946   8.389 -31.198  1.00  0.00    +0.153 C 
ATOM    106  C   ALA A  15     -33.325   9.020 -29.963  1.00  0.00    +0.258 C 
ATOM    107  O   ALA A  15     -34.036   9.477 -29.069  1.00  0.00    -0.272 OA
ATOM    108  CB  ALA A  15     -34.561   9.474 -32.066  1.00  0.00    +0.029 C 
ATOM    109  N   SER A  16     -31.995   9.044 -29.911  1.00  0.00    -0.194 N 
ATOM    110  CA  SER A  16     -31.277  10.199 -29.381  1.00  0.00    +0.205 C 
ATOM    111  C   SER A  16     -31.228  11.331 -30.396  1.00  0.00    +0.264 C 
ATOM    112  O   SER A  16     -31.097  11.090 -31.595  1.00  0.00    -0.271 OA
ATOM    113  CB  SER A  16     -29.860   9.814 -28.984  1.00  0.00    +0.213 C 
ATOM    114  OG  SER A  16     -29.016   9.764 -30.121  1.00  0.00    -0.218 OA
ATOM    115  N   ASP A  17     -31.333  12.567 -29.916  1.00  0.00    -0.196 N 
ATOM    116  CA  ASP A  17     -30.914  13.726 -30.701  1.00  0.00    +0.184 C 
ATOM    117  C   ASP A  17     -29.537  14.205 -30.271  1.00  0.00    +0.262 C 
ATOM    118  O   ASP A  17     -29.154  14.048 -29.113  1.00  0.00    -0.271 OA
ATOM    119  CB  ASP A  17     -31.914  14.862 -30.565  1.00  0.00    +0.145 C 
ATOM    120  CG  ASP A  17     -33.262  14.547 -31.192  1.00  0.00    +0.367 C 
ATOM    121  OD1 ASP A  17     -33.314  13.782 -32.179  1.00  0.00    -0.246 OA
ATOM    122  OD2 ASP A  17     -34.282  15.070 -30.693  1.00  0.00    -0.246 OA
ATOM    123  N   TRP A  18     -28.792  14.791 -31.204  1.00  0.00    -0.196 N 
ATOM    124  CA  TRP A  18     -27.522  15.429 -30.873  1.00  0.00    +0.177 C 
ATOM    125  C   TRP A  18     -27.575  16.921 -31.149  1.00  0.00    +0.262 C 
ATOM    126  O   TRP A  18     -28.343  17.372 -31.998  1.00  0.00    -0.271 OA
ATOM    127  CB  TRP A  18     -26.382  14.806 -31.663  1.00  0.00    +0.055 C 
ATOM    128  CG  TRP A  18     -26.125  13.365 -31.338  1.00  0.00    -0.016 C 
ATOM    129  CD1 TRP A  18     -25.546  12.866 -30.201  1.00  0.00    +0.148 C 
ATOM    130  CD2 TRP A  18     -26.439  12.236 -32.157  1.00  0.00    +0.011 A 
ATOM    131  NE1 TRP A  18     -25.498  11.490 -30.301  1.00  0.00    -0.266 NA
ATOM    132  CE2 TRP A  18     -26.036  11.075 -31.485  1.00  0.00    +0.076 A 
ATOM    133  CE3 TRP A  18     -27.032  12.084 -33.415  1.00  0.00    +0.001 A 
ATOM    134  CZ2 TRP A  18     -26.231   9.820 -32.076  1.00  0.00    +0.019 A 
ATOM    135  CZ3 TRP A  18     -27.204  10.808 -33.960  1.00  0.00    +0.000 A 
ATOM    136  CH2 TRP A  18     -26.830   9.728 -33.338  1.00  0.00    +0.002 A 
ATOM    137  N   ILE A  19     -26.760  17.691 -30.433  1.00  0.00    -0.196 N 
ATOM    138  CA  ILE A  19     -26.083  18.840 -31.027  1.00  0.00    +0.173 C 
ATOM    139  C   ILE A  19     -24.586  18.576 -31.091  1.00  0.00    +0.262 C 
ATOM    140  O   ILE A  19     -23.926  18.462 -30.060  1.00  0.00    -0.271 OA
ATOM    141  CB  ILE A  19     -26.339  20.117 -30.244  1.00  0.00    +0.029 C 
ATOM    142  CG1 ILE A  19     -27.559  20.852 -30.795  1.00  0.00    +0.002 C 
ATOM    143  CG2 ILE A  19     -25.121  21.037 -30.310  1.00  0.00    +0.002 C 
ATOM    144  CD1 ILE A  19     -28.003  22.034 -29.947  1.00  0.00    +0.000 C 
ATOM    145  N   ARG A  20     -24.051  18.479 -32.304  1.00  0.00    -0.196 N 
ATOM    146  CA  ARG A  20     -23.493  19.644 -32.984  1.00  0.00    +0.173 C 
ATOM    147  C   ARG A  20     -24.594  20.494 -33.598  1.00  0.00    +0.261 C 
ATOM    148  O   ARG A  20     -24.778  21.649 -33.219  1.00  0.00    -0.271 OA
ATOM    149  CB  ARG A  20     -22.514  19.224 -34.068  1.00  0.00    +0.036 C 
ATOM    150  CG  ARG A  20     -23.108  18.272 -35.095  1.00  0.00    +0.058 C 
ATOM    151  CD  ARG A  20     -23.974  19.002 -36.107  1.00  0.00    +0.233 C 
ATOM    152  NE  ARG A  20     -23.170  19.665 -37.129  1.00  0.00    -0.205 NA
ATOM    153  CZ  ARG A  20     -23.499  19.753 -38.414  1.00  0.00    +0.286 C 
ATOM    154  NH1 ARG A  20     -24.733  19.469 -38.820  1.00  0.00    -0.104 N 
ATOM    155  NH2 ARG A  20     -22.583  20.133 -39.303  1.00  0.00    -0.104 N 
ATOM    156  N   ARG A  21     -25.329  19.924 -34.549  1.00  0.00    -0.200 N 
ATOM    157  CA  ARG A  21     -25.271  18.487 -34.797  1.00  0.00    +0.154 C 
ATOM    158  C   ARG A  21     -24.767  18.195 -36.201  1.00  0.00    +0.282 C 
ATOM    159  O   ARG A  21     -23.612  17.817 -36.384  1.00  0.00    -0.306 OA
ATOM    160  CB  ARG A  21     -26.637  17.848 -34.606  1.00  0.00    +0.029 C 
ATOM    161  CG  ARG A  21     -27.767  18.852 -34.436  1.00  0.00    +0.028 C 
ATOM    162  CD  ARG A  21     -29.128  18.214 -34.661  1.00  0.00    +0.129 C 
ATOM    163  NE  ARG A  21     -30.205  19.197 -34.587  1.00  0.00    -0.234 NA
ATOM    164  CZ  ARG A  21     -31.479  18.951 -34.871  1.00  0.00    +0.284 C 
ATOM    165  NH1 ARG A  21     -31.891  17.710 -35.115  1.00  0.00    -0.104 N 
ATOM    166  NH2 ARG A  21     -32.350  19.955 -34.914  1.00  0.00    -0.104 N 
ATOM    167  OXT ARG A  21     -25.510  18.333 -37.171  1.00  0.00    -0.189 OA
ATOM    168  H   MET A   1      -6.977 -10.688 -33.455  1.00  0.00    +0.000 HD
ATOM    169  H   MET A   1      -7.427  -9.450 -32.433  1.00  0.00    +0.000 HD
ATOM    170  H   LYS A   2     -11.525 -10.742 -33.346  1.00  0.00    +0.000 HD
ATOM    171  H   LYS A   2     -17.040  -9.519 -34.146  1.00  0.00    +0.000 HD
ATOM    172  H   LEU A   3     -12.230  -6.392 -31.886  1.00  0.00    +0.000 HD
ATOM    173  H   ALA A   4     -16.149  -8.160 -30.123  1.00  0.00    +0.000 HD
ATOM    174  H   PHE A   6     -20.813  -2.226 -28.220  1.00  0.00    +0.000 HD
ATOM    175  H   ALA A   7     -23.276  -1.875 -31.959  1.00  0.00    +0.000 HD
ATOM    176  H   LEU A   8     -24.798   2.160 -30.528  1.00  0.00    +0.000 HD
ATOM    177  H   LEU A   9     -29.057   0.850 -29.380  1.00  0.00    +0.000 HD
ATOM    178  H   VAL A  10     -31.573   3.762 -31.615  1.00  0.00    +0.000 HD
ATOM    179  H   VAL A  11     -34.820   1.005 -33.160  1.00  0.00    +0.000 HD
ATOM    180  H   PHE A  12     -35.720   2.606 -29.160  1.00  0.00    +0.000 HD
ATOM    181  H   ALA A  13     -38.470   3.529 -26.949  1.00  0.00    +0.000 HD
ATOM    182  H   ALA A  15     -35.575   7.843 -30.167  1.00  0.00    +0.000 HD
ATOM    183  H   SER A  16     -31.486   8.266 -30.235  1.00  0.00    +0.000 HD
ATOM    184  H   SER A  16     -29.350   9.098 -30.742  1.00  0.00    +0.000 HD
ATOM    185  H   ASP A  17     -31.702  12.704 -29.013  1.00  0.00    +0.000 HD
ATOM    186  H   ASP A  17     -34.203  15.639 -29.952  1.00  0.00    +0.000 HD
ATOM    187  H   TRP A  18     -29.103  14.794 -32.138  1.00  0.00    +0.000 HD
ATOM    188  H   ILE A  19     -26.610  17.481 -29.483  1.00  0.00    +0.000 HD
ATOM    189  H   ARG A  20     -24.031  17.602 -32.753  1.00  0.00    +0.000 HD
ATOM    190  H   ARG A  20     -25.414  19.188 -38.167  1.00  0.00    +0.000 HD
ATOM    191  H   ARG A  20     -24.967  19.540 -39.774  1.00  0.00    +0.000 HD
ATOM    192  H   ARG A  20     -22.820  20.200 -40.256  1.00  0.00    +0.000 HD
ATOM    193  H   ARG A  20     -21.669  20.347 -39.007  1.00  0.00    +0.000 HD
ATOM    194  H   ARG A  21     -25.926  20.483 -35.097  1.00  0.00    +0.000 HD
ATOM    195  H   ARG A  21     -32.838  17.537 -35.325  1.00  0.00    +0.000 HD
ATOM    196  H   ARG A  21     -31.251  16.963 -35.085  1.00  0.00    +0.000 HD
ATOM    197  H   ARG A  21     -33.295  19.778 -35.125  1.00  0.00    +0.000 HD
ATOM    198  H   ARG A  21     -32.050  20.875 -34.736  1.00  0.00    +0.000 HD
ATOM    199  H   ARG A  21     -26.159  17.612 -37.186  1.00  0.00    +0.000 HD
ENDROOT
TORSDOF 0
