REMARK  Name = /var/folders/yp/yjbh3p597675h2qddgqr02y00000gn/T/tmpw_uwp2m_.pdb
REMARK   1 CREATED WITH OPENMM 8.6.1, 2026-10-07
REMARK                            x       y       z     vdW  Elec       q    Type
REMARK                         _______ _______ _______ _____ _____    ______ ____
ROOT
ATOM      1  N   MET A   1     -17.776   4.680   7.857  1.00  0.00    -0.123 NA
ATOM      2  CA  MET A   1     -18.934   4.674   8.778  1.00  0.00    +0.170 C 
ATOM      3  C   MET A   1     -19.597   3.307   8.785  1.00  0.00    +0.259 C 
ATOM      4  O   MET A   1     -19.480   2.547   7.821  1.00  0.00    -0.272 OA
ATOM      5  CB  MET A   1     -19.899   5.815   8.443  1.00  0.00    +0.040 C 
ATOM      6  CG  MET A   1     -21.150   5.908   9.330  1.00  0.00    +0.060 C 
ATOM      7  SD  MET A   1     -22.689   5.150   8.736  1.00  0.00    -0.139 S 
ATOM      8  CE  MET A   1     -22.270   4.614   7.054  1.00  0.00    +0.069 C 
ATOM      9  N   LYS A   2     -20.250   2.957   9.892  1.00  0.00    -0.197 N 
ATOM     10  CA  LYS A   2     -20.504   1.560  10.235  1.00  0.00    +0.173 C 
ATOM     11  C   LYS A   2     -21.994   1.280  10.403  1.00  0.00    +0.262 C 
ATOM     12  O   LYS A   2     -22.699   2.028  11.085  1.00  0.00    -0.271 OA
ATOM     13  CB  LYS A   2     -19.756   1.279  11.530  1.00  0.00    +0.031 C 
ATOM     14  CG  LYS A   2     -19.445  -0.197  11.783  1.00  0.00    +0.004 C 
ATOM     15  CD  LYS A   2     -19.219  -0.545  13.262  1.00  0.00    +0.021 C 
ATOM     16  CE  LYS A   2     -20.155   0.137  14.268  1.00  0.00    +0.109 C 
ATOM     17  NZ  LYS A   2     -19.825   1.549  14.588  1.00  0.00    -0.131 NA
ATOM     18  N   LEU A   3     -22.442   0.155   9.856  1.00  0.00    -0.196 N 
ATOM     19  CA  LEU A   3     -23.603  -0.556  10.389  1.00  0.00    +0.173 C 
ATOM     20  C   LEU A   3     -23.238  -1.199  11.726  1.00  0.00    +0.262 C 
ATOM     21  O   LEU A   3     -22.107  -1.634  11.916  1.00  0.00    -0.271 OA
ATOM     22  CB  LEU A   3     -24.081  -1.645   9.420  1.00  0.00    +0.031 C 
ATOM     23  CG  LEU A   3     -24.984  -1.148   8.281  1.00  0.00    +0.002 C 
ATOM     24  CD1 LEU A   3     -25.742  -2.328   7.683  1.00  0.00    +0.000 C 
ATOM     25  CD2 LEU A   3     -24.186  -0.565   7.120  1.00  0.00    +0.000 C 
ATOM     26  N   ALA A   4     -24.190  -1.274  12.653  1.00  0.00    -0.196 N 
ATOM     27  CA  ALA A   4     -23.925  -1.714  14.020  1.00  0.00    +0.171 C 
ATOM     28  C   ALA A   4     -23.102  -3.013  14.061  1.00  0.00    +0.246 C 
ATOM     29  O   ALA A   4     -23.206  -3.846  13.148  1.00  0.00    -0.273 OA
ATOM     30  CB  ALA A   4     -25.259  -1.881  14.750  1.00  0.00    +0.033 C 
ATOM     31  N   PRO A   5     -22.285  -3.190  15.112  1.00  0.00    -0.272 N 
ATOM     32  CA  PRO A   5     -21.430  -4.362  15.232  1.00  0.00    +0.154 C 
ATOM     33  C   PRO A   5     -22.249  -5.652  15.207  1.00  0.00    +0.260 C 
ATOM     34  O   PRO A   5     -23.472  -5.644  15.385  1.00  0.00    -0.272 OA
ATOM     35  CB  PRO A   5     -20.726  -4.200  16.579  1.00  0.00    +0.031 C 
ATOM     36  CG  PRO A   5     -21.739  -3.417  17.406  1.00  0.00    +0.024 C 
ATOM     37  CD  PRO A   5     -22.320  -2.461  16.377  1.00  0.00    +0.094 C 
ATOM     38  N   PHE A   6     -21.563  -6.777  15.040  1.00  0.00    -0.196 N 
ATOM     39  CA  PHE A   6     -22.184  -8.073  15.264  1.00  0.00    +0.177 C 
ATOM     40  C   PHE A   6     -22.280  -8.436  16.732  1.00  0.00    +0.262 C 
ATOM     41  O   PHE A   6     -21.364  -8.155  17.500  1.00  0.00    -0.271 OA
ATOM     42  CB  PHE A   6     -21.451  -9.175  14.486  1.00  0.00    +0.057 C 
ATOM     43  CG  PHE A   6     -22.195  -9.743  13.302  1.00  0.00    -0.020 A 
ATOM     44  CD1 PHE A   6     -23.537  -9.401  13.012  1.00  0.00    -0.004 A 
ATOM     45  CE1 PHE A   6     -24.191  -9.959  11.918  1.00  0.00    -0.000 A 
ATOM     46  CD2 PHE A   6     -21.531 -10.667  12.480  1.00  0.00    -0.004 A 
ATOM     47  CE2 PHE A   6     -22.195 -11.230  11.379  1.00  0.00    -0.000 A 
ATOM     48  CZ  PHE A   6     -23.523 -10.873  11.099  1.00  0.00    -0.000 A 
ATOM     49  N   ALA A   7     -23.360  -9.110  17.130  1.00  0.00    -0.196 N 
ATOM     50  CA  ALA A   7     -24.541  -8.360  17.558  1.00  0.00    +0.173 C 
ATOM     51  C   ALA A   7     -24.232  -7.609  18.859  1.00  0.00    +0.262 C 
ATOM     52  O   ALA A   7     -23.383  -8.034  19.649  1.00  0.00    -0.271 OA
ATOM     53  CB  ALA A   7     -25.713  -9.326  17.781  1.00  0.00    +0.033 C 
ATOM     54  N   LEU A   8     -24.962  -6.528  19.113  1.00  0.00    -0.196 N 
ATOM     55  CA  LEU A   8     -25.085  -5.993  20.462  1.00  0.00    +0.173 C 
ATOM     56  C   LEU A   8     -26.320  -6.558  21.160  1.00  0.00    +0.262 C 
ATOM     57  O   LEU A   8     -27.336  -6.850  20.524  1.00  0.00    -0.271 OA
ATOM     58  CB  LEU A   8     -25.093  -4.461  20.433  1.00  0.00    +0.031 C 
ATOM     59  CG  LEU A   8     -26.203  -3.803  19.586  1.00  0.00    +0.002 C 
ATOM     60  CD1 LEU A   8     -25.626  -2.941  18.480  1.00  0.00    +0.000 C 
ATOM     61  CD2 LEU A   8     -26.969  -2.801  20.404  1.00  0.00    +0.000 C 
ATOM     62  N   LEU A   9     -26.245  -6.610  22.487  1.00  0.00    -0.196 N 
ATOM     63  CA  LEU A   9     -27.365  -6.185  23.307  1.00  0.00    +0.173 C 
ATOM     64  C   LEU A   9     -27.434  -4.659  23.305  1.00  0.00    +0.262 C 
ATOM     65  O   LEU A   9     -26.513  -3.980  23.763  1.00  0.00    -0.271 OA
ATOM     66  CB  LEU A   9     -27.187  -6.724  24.734  1.00  0.00    +0.031 C 
ATOM     67  CG  LEU A   9     -28.445  -6.711  25.602  1.00  0.00    +0.002 C 
ATOM     68  CD1 LEU A   9     -29.598  -7.488  24.955  1.00  0.00    +0.000 C 
ATOM     69  CD2 LEU A   9     -28.968  -5.341  25.910  1.00  0.00    +0.000 C 
ATOM     70  N   VAL A  10     -28.567  -4.130  22.859  1.00  0.00    -0.196 N 
ATOM     71  CA  VAL A  10     -28.928  -2.725  23.103  1.00  0.00    +0.173 C 
ATOM     72  C   VAL A  10     -29.591  -2.633  24.466  1.00  0.00    +0.262 C 
ATOM     73  O   VAL A  10     -29.226  -1.853  25.337  1.00  0.00    -0.271 OA
ATOM     74  CB  VAL A  10     -29.914  -2.156  22.049  1.00  0.00    +0.029 C 
ATOM     75  CG1 VAL A  10     -29.532  -0.725  21.680  1.00  0.00    +0.002 C 
ATOM     76  CG2 VAL A  10     -30.126  -2.985  20.767  1.00  0.00    +0.002 C 
ATOM     77  N   VAL A  11     -30.617  -3.455  24.590  1.00  0.00    -0.196 N 
ATOM     78  CA  VAL A  11     -31.867  -3.180  25.259  1.00  0.00    +0.173 C 
ATOM     79  C   VAL A  11     -31.922  -3.658  26.703  1.00  0.00    +0.262 C 
ATOM     80  O   VAL A  11     -31.728  -4.834  27.014  1.00  0.00    -0.271 OA
ATOM     81  CB  VAL A  11     -33.027  -3.801  24.453  1.00  0.00    +0.029 C 
ATOM     82  CG1 VAL A  11     -34.053  -2.714  24.134  1.00  0.00    +0.002 C 
ATOM     83  CG2 VAL A  11     -32.619  -4.463  23.122  1.00  0.00    +0.002 C 
ATOM     84  N   PHE A  12     -32.301  -2.742  27.581  1.00  0.00    -0.196 N 
ATOM     85  CA  PHE A  12     -32.828  -3.113  28.885  1.00  0.00    +0.177 C 
ATOM     86  C   PHE A  12     -34.261  -2.721  29.028  1.00  0.00    +0.262 C 
ATOM     87  O   PHE A  12     -34.976  -3.546  29.563  1.00  0.00    -0.271 OA
ATOM     88  CB  PHE A  12     -32.065  -2.441  30.021  1.00  0.00    +0.057 C 
ATOM     89  CG  PHE A  12     -30.775  -3.135  30.335  1.00  0.00    -0.020 A 
ATOM     90  CD1 PHE A  12     -29.680  -2.988  29.470  1.00  0.00    -0.004 A 
ATOM     91  CE1 PHE A  12     -28.471  -3.630  29.765  1.00  0.00    -0.000 A 
ATOM     92  CD2 PHE A  12     -30.669  -3.927  31.490  1.00  0.00    -0.004 A 
ATOM     93  CE2 PHE A  12     -29.455  -4.563  31.786  1.00  0.00    -0.000 A 
ATOM     94  CZ  PHE A  12     -28.357  -4.413  30.923  1.00  0.00    -0.000 A 
ATOM     95  N   ALA A  13     -34.601  -1.462  28.704  1.00  0.00    -0.196 N 
ATOM     96  CA  ALA A  13     -35.417  -0.647  29.612  1.00  0.00    +0.173 C 
ATOM     97  C   ALA A  13     -36.802  -1.249  29.856  1.00  0.00    +0.262 C 
ATOM     98  O   ALA A  13     -37.423  -1.002  30.892  1.00  0.00    -0.271 OA
ATOM     99  CB  ALA A  13     -35.517   0.773  29.047  1.00  0.00    +0.033 C 
ATOM    100  N   GLY A  14     -37.243  -2.019  28.859  1.00  0.00    -0.194 N 
ATOM    101  CA  GLY A  14     -37.471  -3.472  28.842  1.00  0.00    +0.201 C 
ATOM    102  C   GLY A  14     -38.466  -4.053  29.770  1.00  0.00    +0.264 C 
ATOM    103  O   GLY A  14     -39.561  -3.502  29.769  1.00  0.00    -0.271 OA
ATOM    104  N   ALA A  15     -38.202  -5.235  30.330  1.00  0.00    -0.196 N 
ATOM    105  CA  ALA A  15     -39.162  -6.327  30.177  1.00  0.00    +0.173 C 
ATOM    106  C   ALA A  15     -40.563  -6.002  30.714  1.00  0.00    +0.262 C 
ATOM    107  O   ALA A  15     -40.731  -5.182  31.622  1.00  0.00    -0.271 OA
ATOM    108  CB  ALA A  15     -38.592  -7.594  30.827  1.00  0.00    +0.033 C 
ATOM    109  N   SER A  16     -41.557  -6.730  30.208  1.00  0.00    -0.194 N 
ATOM    110  CA  SER A  16     -42.545  -7.343  31.097  1.00  0.00    +0.205 C 
ATOM    111  C   SER A  16     -41.860  -8.385  31.981  1.00  0.00    +0.264 C 
ATOM    112  O   SER A  16     -41.060  -9.193  31.506  1.00  0.00    -0.271 OA
ATOM    113  CB  SER A  16     -43.652  -8.030  30.298  1.00  0.00    +0.213 C 
ATOM    114  OG  SER A  16     -44.466  -7.065  29.657  1.00  0.00    -0.218 OA
ATOM    115  N   ASP A  17     -42.166  -8.375  33.274  1.00  0.00    -0.196 N 
ATOM    116  CA  ASP A  17     -41.557  -9.302  34.227  1.00  0.00    +0.184 C 
ATOM    117  C   ASP A  17     -42.155 -10.699  34.099  1.00  0.00    +0.262 C 
ATOM    118  O   ASP A  17     -43.311 -10.875  33.714  1.00  0.00    -0.271 OA
ATOM    119  CB  ASP A  17     -41.691  -8.781  35.656  1.00  0.00    +0.145 C 
ATOM    120  CG  ASP A  17     -40.991  -7.437  35.858  1.00  0.00    +0.367 C 
ATOM    121  OD1 ASP A  17     -39.881  -7.228  35.314  1.00  0.00    -0.246 OA
ATOM    122  OD2 ASP A  17     -41.542  -6.584  36.590  1.00  0.00    -0.246 OA
ATOM    123  N   TRP A  18     -41.348 -11.704  34.391  1.00  0.00    -0.196 N 
ATOM    124  CA  TRP A  18     -41.625 -13.097  34.069  1.00  0.00    +0.177 C 
ATOM    125  C   TRP A  18     -42.066 -13.976  35.258  1.00  0.00    +0.262 C 
ATOM    126  O   TRP A  18     -41.940 -13.710  36.442  1.00  0.00    -0.271 OA
ATOM    127  CB  TRP A  18     -40.395 -13.666  33.346  1.00  0.00    +0.055 C 
ATOM    128  CG  TRP A  18     -39.189 -13.894  34.205  1.00  0.00    -0.014 C 
ATOM    129  CD1 TRP A  18     -38.023 -14.453  33.804  1.00  0.00    +0.091 C 
ATOM    130  CD2 TRP A  18     -39.010 -13.616  35.629  1.00  0.00    +0.082 C 
ATOM    131  NE1 TRP A  18     -37.170 -14.564  34.887  1.00  0.00    -0.248 NA
ATOM    132  CE2 TRP A  18     -37.762 -14.120  36.046  1.00  0.00    +0.066 C 
ATOM    133  CE3 TRP A  18     -39.667 -12.879  36.631  1.00  0.00    -0.016 C 
ATOM    134  CZ2 TRP A  18     -37.353 -14.048  37.387  1.00  0.00    +0.015 C 
ATOM    135  CZ3 TRP A  18     -39.422 -12.986  37.987  1.00  0.00    -0.004 C 
ATOM    136  CH2 TRP A  18     -38.219 -13.542  38.369  1.00  0.00    +0.001 C 
ATOM    137  N   ILE A  19     -42.653 -15.106  34.954  1.00  0.00    -0.196 N 
ATOM    138  CA  ILE A  19     -42.428 -16.299  35.758  1.00  0.00    +0.173 C 
ATOM    139  C   ILE A  19     -41.532 -17.214  34.931  1.00  0.00    +0.262 C 
ATOM    140  O   ILE A  19     -41.755 -17.418  33.733  1.00  0.00    -0.271 OA
ATOM    141  CB  ILE A  19     -43.753 -16.975  36.139  1.00  0.00    +0.029 C 
ATOM    142  CG1 ILE A  19     -44.499 -17.398  34.857  1.00  0.00    +0.002 C 
ATOM    143  CG2 ILE A  19     -44.607 -16.022  36.994  1.00  0.00    +0.002 C 
ATOM    144  CD1 ILE A  19     -45.696 -18.275  35.037  1.00  0.00    +0.000 C 
ATOM    145  N   ARG A  20     -40.543 -17.802  35.594  1.00  0.00    -0.196 N 
ATOM    146  CA  ARG A  20     -40.494 -19.259  35.686  1.00  0.00    +0.173 C 
ATOM    147  C   ARG A  20     -41.463 -19.708  36.785  1.00  0.00    +0.262 C 
ATOM    148  O   ARG A  20     -41.391 -19.221  37.919  1.00  0.00    -0.271 OA
ATOM    149  CB  ARG A  20     -39.058 -19.730  35.971  1.00  0.00    +0.033 C 
ATOM    150  CG  ARG A  20     -38.709 -19.779  37.468  1.00  0.00    +0.029 C 
ATOM    151  CD  ARG A  20     -37.258 -20.143  37.700  1.00  0.00    +0.129 C 
ATOM    152  NE  ARG A  20     -37.071 -20.683  39.055  1.00  0.00    -0.234 NA
ATOM    153  CZ  ARG A  20     -35.905 -20.904  39.625  1.00  0.00    +0.284 C 
ATOM    154  NH1 ARG A  20     -34.788 -20.545  39.052  1.00  0.00    -0.104 N 
ATOM    155  NH2 ARG A  20     -35.841 -21.493  40.784  1.00  0.00    -0.104 N 
ATOM    156  N   ARG A  21     -42.365 -20.626  36.465  1.00  0.00    -0.194 N 
ATOM    157  CA  ARG A  21     -43.089 -21.408  37.477  1.00  0.00    +0.198 C 
ATOM    158  C   ARG A  21     -42.344 -22.694  37.806  1.00  0.00    +0.384 C 
ATOM    159  O   ARG A  21     -42.472 -23.185  38.943  1.00  0.00    -0.244 OA
ATOM    160  CB  ARG A  21     -44.508 -21.710  36.990  1.00  0.00    +0.035 C 
ATOM    161  CG  ARG A  21     -45.453 -20.546  37.266  1.00  0.00    +0.029 C 
ATOM    162  CD  ARG A  21     -46.912 -20.926  36.949  1.00  0.00    +0.129 C 
ATOM    163  NE  ARG A  21     -47.657 -20.067  36.013  1.00  0.00    -0.234 NA
ATOM    164  CZ  ARG A  21     -48.722 -20.424  35.326  1.00  0.00    +0.284 C 
ATOM    165  NH1 ARG A  21     -49.257 -21.602  35.470  1.00  0.00    -0.104 N 
ATOM    166  NH2 ARG A  21     -49.280 -19.597  34.489  1.00  0.00    -0.104 N 
ATOM    167  OXT ARG A  21     -41.638 -23.227  36.926  1.00  0.00    -0.244 OA
ATOM    168  H   MET A   1     -17.148   3.914   8.098  1.00  0.00    +0.000 HD
ATOM    169  H   MET A   1     -17.279   5.566   7.941  1.00  0.00    +0.000 HD
ATOM    170  H   LYS A   2     -20.572   3.662  10.498  1.00  0.00    +0.000 HD
ATOM    171  H   LYS A   2     -18.908   1.592  15.033  1.00  0.00    +0.000 HD
ATOM    172  H   LYS A   2     -20.528   1.928  15.222  1.00  0.00    +0.000 HD
ATOM    173  H   LEU A   3     -21.978  -0.211   9.068  1.00  0.00    +0.000 HD
ATOM    174  H   ALA A   4     -25.110  -1.023  12.408  1.00  0.00    +0.000 HD
ATOM    175  H   PHE A   6     -20.620  -6.734  14.760  1.00  0.00    +0.000 HD
ATOM    176  H   ALA A   7     -23.363 -10.094  17.136  1.00  0.00    +0.000 HD
ATOM    177  H   LEU A   8     -25.430  -6.079  18.372  1.00  0.00    +0.000 HD
ATOM    178  H   LEU A   9     -25.423  -6.939  22.917  1.00  0.00    +0.000 HD
ATOM    179  H   VAL A  10     -29.187  -4.697  22.348  1.00  0.00    +0.000 HD
ATOM    180  H   VAL A  11     -30.520  -4.347  24.186  1.00  0.00    +0.000 HD
ATOM    181  H   PHE A  12     -32.223  -1.789  27.347  1.00  0.00    +0.000 HD
ATOM    182  H   ALA A  13     -34.299  -1.082  27.848  1.00  0.00    +0.000 HD
ATOM    183  H   GLY A  14     -37.443  -1.549  28.017  1.00  0.00    +0.000 HD
ATOM    184  H   ALA A  15     -37.371  -5.369  30.841  1.00  0.00    +0.000 HD
ATOM    185  H   SER A  16     -41.628  -6.856  29.233  1.00  0.00    +0.000 HD
ATOM    186  H   SER A  16     -43.924  -6.537  29.049  1.00  0.00    +0.000 HD
ATOM    187  H   ASP A  17     -42.825  -7.721  33.601  1.00  0.00    +0.000 HD
ATOM    188  H   ASP A  17     -39.493  -7.887  34.773  1.00  0.00    +0.000 HD
ATOM    189  H   TRP A  18     -40.505 -11.497  34.857  1.00  0.00    +0.000 HD
ATOM    190  H   ILE A  19     -43.252 -15.149  34.174  1.00  0.00    +0.000 HD
ATOM    191  H   ARG A  20     -39.844 -17.257  36.023  1.00  0.00    +0.000 HD
ATOM    192  H   ARG A  20     -34.806 -20.097  38.176  1.00  0.00    +0.000 HD
ATOM    193  H   ARG A  20     -33.928 -20.723  39.497  1.00  0.00    +0.000 HD
ATOM    194  H   ARG A  20     -36.668 -21.775  41.239  1.00  0.00    +0.000 HD
ATOM    195  H   ARG A  20     -34.967 -21.658  41.205  1.00  0.00    +0.000 HD
ATOM    196  H   ARG A  21     -42.557 -20.789  35.513  1.00  0.00    +0.000 HD
ATOM    197  H   ARG A  21     -50.053 -21.848  34.946  1.00  0.00    +0.000 HD
ATOM    198  H   ARG A  21     -48.865 -22.247  36.102  1.00  0.00    +0.000 HD
ATOM    199  H   ARG A  21     -50.076 -19.874  33.980  1.00  0.00    +0.000 HD
ATOM    200  H   ARG A  21     -48.906 -18.695  34.366  1.00  0.00    +0.000 HD
ATOM    201  H   ARG A  21     -41.564 -22.830  36.081  1.00  0.00    +0.000 HD
ENDROOT
TORSDOF 0
