REMARK  Name = /var/folders/yp/yjbh3p597675h2qddgqr02y00000gn/T/tmpc7kdpt2p.pdb
REMARK   1 CREATED WITH OPENMM 8.6.1, 2026-10-07
REMARK                            x       y       z     vdW  Elec       q    Type
REMARK                         _______ _______ _______ _____ _____    ______ ____
ROOT
ATOM      1  N   MET A   1       7.730  24.359  -7.134  1.00  0.00    -0.123 NA
ATOM      2  CA  MET A   1       7.267  25.710  -7.516  1.00  0.00    +0.170 C 
ATOM      3  C   MET A   1       6.100  25.602  -8.482  1.00  0.00    +0.259 C 
ATOM      4  O   MET A   1       6.052  24.704  -9.325  1.00  0.00    -0.272 OA
ATOM      5  CB  MET A   1       8.398  26.529  -8.148  1.00  0.00    +0.040 C 
ATOM      6  CG  MET A   1       7.993  27.931  -8.632  1.00  0.00    +0.060 C 
ATOM      7  SD  MET A   1       8.272  29.251  -7.430  1.00  0.00    -0.139 S 
ATOM      8  CE  MET A   1      10.042  29.499  -7.733  1.00  0.00    +0.069 C 
ATOM      9  N   LYS A   2       5.140  26.512  -8.357  1.00  0.00    -0.197 N 
ATOM     10  CA  LYS A   2       3.865  26.443  -9.068  1.00  0.00    +0.173 C 
ATOM     11  C   LYS A   2       3.941  27.023 -10.478  1.00  0.00    +0.262 C 
ATOM     12  O   LYS A   2       4.424  28.137 -10.685  1.00  0.00    -0.271 OA
ATOM     13  CB  LYS A   2       2.756  27.107  -8.238  1.00  0.00    +0.031 C 
ATOM     14  CG  LYS A   2       3.260  28.251  -7.351  1.00  0.00    +0.004 C 
ATOM     15  CD  LYS A   2       2.105  29.112  -6.838  1.00  0.00    +0.021 C 
ATOM     16  CE  LYS A   2       2.556  30.562  -6.963  1.00  0.00    +0.109 C 
ATOM     17  NZ  LYS A   2       1.466  31.533  -6.827  1.00  0.00    -0.131 NA
ATOM     18  N   LEU A   3       3.364  26.277 -11.414  1.00  0.00    -0.196 N 
ATOM     19  CA  LEU A   3       2.020  26.604 -11.895  1.00  0.00    +0.173 C 
ATOM     20  C   LEU A   3       0.983  25.997 -10.946  1.00  0.00    +0.262 C 
ATOM     21  O   LEU A   3       1.159  24.880 -10.453  1.00  0.00    -0.271 OA
ATOM     22  CB  LEU A   3       1.814  26.026 -13.308  1.00  0.00    +0.031 C 
ATOM     23  CG  LEU A   3       2.431  26.845 -14.456  1.00  0.00    +0.002 C 
ATOM     24  CD1 LEU A   3       2.897  25.908 -15.567  1.00  0.00    +0.000 C 
ATOM     25  CD2 LEU A   3       3.689  27.621 -14.080  1.00  0.00    +0.000 C 
ATOM     26  N   ALA A   4      -0.117  26.711 -10.752  1.00  0.00    -0.196 N 
ATOM     27  CA  ALA A   4      -1.427  26.106 -10.542  1.00  0.00    +0.171 C 
ATOM     28  C   ALA A   4      -2.482  26.951 -11.249  1.00  0.00    +0.246 C 
ATOM     29  O   ALA A   4      -2.263  28.135 -11.536  1.00  0.00    -0.273 OA
ATOM     30  CB  ALA A   4      -1.744  25.969  -9.055  1.00  0.00    +0.033 C 
ATOM     31  N   PRO A   5      -3.602  26.333 -11.610  1.00  0.00    -0.272 N 
ATOM     32  CA  PRO A   5      -4.887  26.775 -11.049  1.00  0.00    +0.154 C 
ATOM     33  C   PRO A   5      -5.765  25.625 -10.543  1.00  0.00    +0.260 C 
ATOM     34  O   PRO A   5      -5.436  24.446 -10.685  1.00  0.00    -0.272 OA
ATOM     35  CB  PRO A   5      -5.565  27.539 -12.181  1.00  0.00    +0.031 C 
ATOM     36  CG  PRO A   5      -5.106  26.781 -13.417  1.00  0.00    +0.024 C 
ATOM     37  CD  PRO A   5      -3.711  26.300 -13.063  1.00  0.00    +0.094 C 
ATOM     38  N   PHE A   6      -6.872  25.981  -9.898  1.00  0.00    -0.196 N 
ATOM     39  CA  PHE A   6      -7.583  25.086  -8.989  1.00  0.00    +0.177 C 
ATOM     40  C   PHE A   6      -8.305  23.942  -9.703  1.00  0.00    +0.262 C 
ATOM     41  O   PHE A   6      -8.919  24.110 -10.757  1.00  0.00    -0.271 OA
ATOM     42  CB  PHE A   6      -8.558  25.885  -8.110  1.00  0.00    +0.057 C 
ATOM     43  CG  PHE A   6      -9.127  27.125  -8.766  1.00  0.00    -0.020 A 
ATOM     44  CD1 PHE A   6      -9.836  27.037  -9.978  1.00  0.00    -0.004 A 
ATOM     45  CE1 PHE A   6     -10.307  28.193 -10.610  1.00  0.00    -0.000 A 
ATOM     46  CD2 PHE A   6      -8.914  28.381  -8.176  1.00  0.00    -0.004 A 
ATOM     47  CE2 PHE A   6      -9.408  29.539  -8.796  1.00  0.00    -0.000 A 
ATOM     48  CZ  PHE A   6     -10.099  29.446 -10.015  1.00  0.00    -0.000 A 
ATOM     49  N   ALA A   7      -8.299  22.787  -9.046  1.00  0.00    -0.196 N 
ATOM     50  CA  ALA A   7      -9.540  22.162  -8.610  1.00  0.00    +0.173 C 
ATOM     51  C   ALA A   7      -9.452  21.881  -7.105  1.00  0.00    +0.262 C 
ATOM     52  O   ALA A   7      -8.361  21.674  -6.566  1.00  0.00    -0.271 OA
ATOM     53  CB  ALA A   7      -9.796  20.868  -9.389  1.00  0.00    +0.033 C 
ATOM     54  N   LEU A   8     -10.603  21.823  -6.440  1.00  0.00    -0.196 N 
ATOM     55  CA  LEU A   8     -10.741  21.016  -5.226  1.00  0.00    +0.173 C 
ATOM     56  C   LEU A   8     -11.027  19.560  -5.602  1.00  0.00    +0.262 C 
ATOM     57  O   LEU A   8     -10.363  18.644  -5.118  1.00  0.00    -0.271 OA
ATOM     58  CB  LEU A   8     -11.890  21.553  -4.352  1.00  0.00    +0.031 C 
ATOM     59  CG  LEU A   8     -11.501  22.624  -3.329  1.00  0.00    +0.002 C 
ATOM     60  CD1 LEU A   8     -12.750  23.092  -2.587  1.00  0.00    +0.000 C 
ATOM     61  CD2 LEU A   8     -10.942  23.876  -3.991  1.00  0.00    +0.000 C 
ATOM     62  N   LEU A   9     -12.071  19.370  -6.414  1.00  0.00    -0.196 N 
ATOM     63  CA  LEU A   9     -13.089  18.377  -6.094  1.00  0.00    +0.173 C 
ATOM     64  C   LEU A   9     -12.568  16.954  -6.108  1.00  0.00    +0.262 C 
ATOM     65  O   LEU A   9     -11.900  16.525  -7.049  1.00  0.00    -0.271 OA
ATOM     66  CB  LEU A   9     -14.293  18.527  -7.053  1.00  0.00    +0.031 C 
ATOM     67  CG  LEU A   9     -15.500  19.326  -6.518  1.00  0.00    +0.002 C 
ATOM     68  CD1 LEU A   9     -16.041  20.248  -7.610  1.00  0.00    +0.000 C 
ATOM     69  CD2 LEU A   9     -15.192  20.278  -5.366  1.00  0.00    +0.000 C 
ATOM     70  N   VAL A  10     -13.019  16.214  -5.099  1.00  0.00    -0.196 N 
ATOM     71  CA  VAL A  10     -13.721  14.959  -5.341  1.00  0.00    +0.173 C 
ATOM     72  C   VAL A  10     -15.041  14.993  -4.574  1.00  0.00    +0.262 C 
ATOM     73  O   VAL A  10     -15.067  15.078  -3.344  1.00  0.00    -0.271 OA
ATOM     74  CB  VAL A  10     -12.914  13.707  -4.950  1.00  0.00    +0.029 C 
ATOM     75  CG1 VAL A  10     -13.098  12.592  -5.990  1.00  0.00    +0.002 C 
ATOM     76  CG2 VAL A  10     -11.408  13.970  -4.849  1.00  0.00    +0.002 C 
ATOM     77  N   VAL A  11     -16.137  14.897  -5.318  1.00  0.00    -0.196 N 
ATOM     78  CA  VAL A  11     -17.273  14.037  -4.951  1.00  0.00    +0.173 C 
ATOM     79  C   VAL A  11     -16.883  12.579  -5.221  1.00  0.00    +0.262 C 
ATOM     80  O   VAL A  11     -15.772  12.160  -4.908  1.00  0.00    -0.271 OA
ATOM     81  CB  VAL A  11     -18.573  14.460  -5.689  1.00  0.00    +0.029 C 
ATOM     82  CG1 VAL A  11     -19.566  15.044  -4.693  1.00  0.00    +0.002 C 
ATOM     83  CG2 VAL A  11     -18.328  15.443  -6.833  1.00  0.00    +0.002 C 
ATOM     84  N   PHE A  12     -17.799  11.768  -5.737  1.00  0.00    -0.196 N 
ATOM     85  CA  PHE A  12     -17.647  10.327  -5.841  1.00  0.00    +0.177 C 
ATOM     86  C   PHE A  12     -16.745   9.910  -7.002  1.00  0.00    +0.262 C 
ATOM     87  O   PHE A  12     -15.939   8.996  -6.841  1.00  0.00    -0.271 OA
ATOM     88  CB  PHE A  12     -19.034   9.691  -5.959  1.00  0.00    +0.057 C 
ATOM     89  CG  PHE A  12     -19.775   9.621  -4.663  1.00  0.00    -0.020 A 
ATOM     90  CD1 PHE A  12     -19.420   8.633  -3.734  1.00  0.00    -0.004 A 
ATOM     91  CE1 PHE A  12     -20.118   8.537  -2.524  1.00  0.00    -0.000 A 
ATOM     92  CD2 PHE A  12     -20.823  10.517  -4.392  1.00  0.00    -0.004 A 
ATOM     93  CE2 PHE A  12     -21.519  10.418  -3.180  1.00  0.00    -0.000 A 
ATOM     94  CZ  PHE A  12     -21.166   9.429  -2.247  1.00  0.00    -0.000 A 
ATOM     95  N   ALA A  13     -16.842  10.540  -8.175  1.00  0.00    -0.196 N 
ATOM     96  CA  ALA A  13     -18.143  10.829  -8.776  1.00  0.00    +0.173 C 
ATOM     97  C   ALA A  13     -18.857   9.516  -9.141  1.00  0.00    +0.262 C 
ATOM     98  O   ALA A  13     -18.228   8.550  -9.582  1.00  0.00    -0.271 OA
ATOM     99  CB  ALA A  13     -17.973  11.701 -10.019  1.00  0.00    +0.033 C 
ATOM    100  N   GLY A  14     -20.182   9.543  -9.037  1.00  0.00    -0.194 N 
ATOM    101  CA  GLY A  14     -21.029   8.954 -10.059  1.00  0.00    +0.201 C 
ATOM    102  C   GLY A  14     -21.328   7.479  -9.874  1.00  0.00    +0.264 C 
ATOM    103  O   GLY A  14     -21.221   6.933  -8.773  1.00  0.00    -0.271 OA
ATOM    104  N   ALA A  15     -21.800   6.883 -10.967  1.00  0.00    -0.196 N 
ATOM    105  CA  ALA A  15     -23.009   6.073 -10.927  1.00  0.00    +0.173 C 
ATOM    106  C   ALA A  15     -22.897   4.857 -10.009  1.00  0.00    +0.262 C 
ATOM    107  O   ALA A  15     -21.847   4.215  -9.926  1.00  0.00    -0.271 OA
ATOM    108  CB  ALA A  15     -23.376   5.648 -12.352  1.00  0.00    +0.033 C 
ATOM    109  N   SER A  16     -24.014   4.508  -9.373  1.00  0.00    -0.194 N 
ATOM    110  CA  SER A  16     -24.278   3.117  -9.017  1.00  0.00    +0.205 C 
ATOM    111  C   SER A  16     -24.633   2.324 -10.272  1.00  0.00    +0.264 C 
ATOM    112  O   SER A  16     -25.323   2.819 -11.171  1.00  0.00    -0.271 OA
ATOM    113  CB  SER A  16     -25.419   3.011  -8.003  1.00  0.00    +0.213 C 
ATOM    114  OG  SER A  16     -26.668   3.335  -8.592  1.00  0.00    -0.218 OA
ATOM    115  N   ASP A  17     -24.199   1.072 -10.321  1.00  0.00    -0.196 N 
ATOM    116  CA  ASP A  17     -24.644   0.131 -11.343  1.00  0.00    +0.184 C 
ATOM    117  C   ASP A  17     -25.649  -0.837 -10.739  1.00  0.00    +0.262 C 
ATOM    118  O   ASP A  17     -25.537  -1.217  -9.569  1.00  0.00    -0.271 OA
ATOM    119  CB  ASP A  17     -23.471  -0.633 -11.967  1.00  0.00    +0.145 C 
ATOM    120  CG  ASP A  17     -22.400   0.266 -12.594  1.00  0.00    +0.367 C 
ATOM    121  OD1 ASP A  17     -22.311   1.476 -12.291  1.00  0.00    -0.246 OA
ATOM    122  OD2 ASP A  17     -21.613  -0.247 -13.422  1.00  0.00    -0.246 OA
ATOM    123  N   TRP A  18     -26.591  -1.289 -11.557  1.00  0.00    -0.196 N 
ATOM    124  CA  TRP A  18     -27.252  -2.570 -11.346  1.00  0.00    +0.177 C 
ATOM    125  C   TRP A  18     -26.689  -3.605 -12.312  1.00  0.00    +0.262 C 
ATOM    126  O   TRP A  18     -26.339  -3.289 -13.452  1.00  0.00    -0.271 OA
ATOM    127  CB  TRP A  18     -28.760  -2.424 -11.539  1.00  0.00    +0.055 C 
ATOM    128  CG  TRP A  18     -29.425  -1.559 -10.523  1.00  0.00    -0.014 C 
ATOM    129  CD1 TRP A  18     -29.708  -0.241 -10.646  1.00  0.00    +0.091 C 
ATOM    130  CD2 TRP A  18     -29.871  -1.945  -9.197  1.00  0.00    +0.082 C 
ATOM    131  NE1 TRP A  18     -30.313   0.208  -9.487  1.00  0.00    -0.248 NA
ATOM    132  CE2 TRP A  18     -30.438  -0.806  -8.562  1.00  0.00    +0.066 C 
ATOM    133  CE3 TRP A  18     -29.860  -3.156  -8.474  1.00  0.00    -0.016 C 
ATOM    134  CZ2 TRP A  18     -30.970  -0.871  -7.269  1.00  0.00    +0.015 C 
ATOM    135  CZ3 TRP A  18     -30.393  -3.226  -7.176  1.00  0.00    -0.004 C 
ATOM    136  CH2 TRP A  18     -30.946  -2.090  -6.574  1.00  0.00    +0.001 C 
ATOM    137  N   ILE A  19     -26.688  -4.858 -11.874  1.00  0.00    -0.196 N 
ATOM    138  CA  ILE A  19     -27.033  -5.977 -12.748  1.00  0.00    +0.173 C 
ATOM    139  C   ILE A  19     -28.457  -6.422 -12.420  1.00  0.00    +0.262 C 
ATOM    140  O   ILE A  19     -28.893  -6.341 -11.267  1.00  0.00    -0.271 OA
ATOM    141  CB  ILE A  19     -26.046  -7.147 -12.592  1.00  0.00    +0.029 C 
ATOM    142  CG1 ILE A  19     -25.947  -7.614 -11.124  1.00  0.00    +0.002 C 
ATOM    143  CG2 ILE A  19     -24.673  -6.753 -13.150  1.00  0.00    +0.002 C 
ATOM    144  CD1 ILE A  19     -25.153  -8.905 -10.949  1.00  0.00    +0.000 C 
ATOM    145  N   ARG A  20     -29.169  -6.950 -13.415  1.00  0.00    -0.196 N 
ATOM    146  CA  ARG A  20     -30.304  -7.850 -13.146  1.00  0.00    +0.173 C 
ATOM    147  C   ARG A  20     -29.825  -9.183 -12.563  1.00  0.00    +0.262 C 
ATOM    148  O   ARG A  20     -30.460  -9.715 -11.657  1.00  0.00    -0.271 OA
ATOM    149  CB  ARG A  20     -31.147  -8.088 -14.406  1.00  0.00    +0.033 C 
ATOM    150  CG  ARG A  20     -30.307  -8.504 -15.598  1.00  0.00    +0.029 C 
ATOM    151  CD  ARG A  20     -30.966  -9.474 -16.550  1.00  0.00    +0.129 C 
ATOM    152  NE  ARG A  20     -31.814  -8.764 -17.504  1.00  0.00    -0.234 NA
ATOM    153  CZ  ARG A  20     -31.960  -9.068 -18.779  1.00  0.00    +0.284 C 
ATOM    154  NH1 ARG A  20     -33.066  -8.747 -19.380  1.00  0.00    -0.104 N 
ATOM    155  NH2 ARG A  20     -31.051  -9.707 -19.468  1.00  0.00    -0.104 N 
ATOM    156  N   ARG A  21     -28.700  -9.718 -13.057  1.00  0.00    -0.194 N 
ATOM    157  CA  ARG A  21     -28.706 -10.943 -13.893  1.00  0.00    +0.198 C 
ATOM    158  C   ARG A  21     -28.169 -12.108 -13.070  1.00  0.00    +0.384 C 
ATOM    159  O   ARG A  21     -28.631 -13.247 -13.259  1.00  0.00    -0.244 OA
ATOM    160  CB  ARG A  21     -27.790 -10.794 -15.136  1.00  0.00    +0.035 C 
ATOM    161  CG  ARG A  21     -27.613 -12.057 -15.992  1.00  0.00    +0.029 C 
ATOM    162  CD  ARG A  21     -28.305 -12.024 -17.355  1.00  0.00    +0.129 C 
ATOM    163  NE  ARG A  21     -29.767 -12.196 -17.271  1.00  0.00    -0.234 NA
ATOM    164  CZ  ARG A  21     -30.429 -13.318 -17.123  1.00  0.00    +0.284 C 
ATOM    165  NH1 ARG A  21     -29.833 -14.473 -17.163  1.00  0.00    -0.104 N 
ATOM    166  NH2 ARG A  21     -31.720 -13.293 -16.952  1.00  0.00    -0.104 N 
ATOM    167  OXT ARG A  21     -27.248 -11.886 -12.261  1.00  0.00    -0.244 OA
ATOM    168  H   MET A   1       8.513  24.438  -6.485  1.00  0.00    +0.000 HD
ATOM    169  H   MET A   1       8.029  23.853  -7.968  1.00  0.00    +0.000 HD
ATOM    170  H   LYS A   2       5.297  27.273  -7.753  1.00  0.00    +0.000 HD
ATOM    171  H   LYS A   2       0.788  31.390  -7.576  1.00  0.00    +0.000 HD
ATOM    172  H   LYS A   2       1.844  32.479  -6.887  1.00  0.00    +0.000 HD
ATOM    173  H   LEU A   3       3.842  25.501 -11.786  1.00  0.00    +0.000 HD
ATOM    174  H   ALA A   4      -0.046  27.694 -10.749  1.00  0.00    +0.000 HD
ATOM    175  H   PHE A   6      -7.227  26.889 -10.039  1.00  0.00    +0.000 HD
ATOM    176  H   ALA A   7      -7.441  22.346  -8.851  1.00  0.00    +0.000 HD
ATOM    177  H   LEU A   8     -11.377  22.334  -6.770  1.00  0.00    +0.000 HD
ATOM    178  H   LEU A   9     -12.153  19.906  -7.236  1.00  0.00    +0.000 HD
ATOM    179  H   VAL A  10     -12.876  16.518  -4.173  1.00  0.00    +0.000 HD
ATOM    180  H   VAL A  11     -16.191  15.422  -6.149  1.00  0.00    +0.000 HD
ATOM    181  H   PHE A  12     -18.635  12.169  -6.070  1.00  0.00    +0.000 HD
ATOM    182  H   ALA A  13     -16.022  10.815  -8.644  1.00  0.00    +0.000 HD
ATOM    183  H   GLY A  14     -20.597   9.969  -8.253  1.00  0.00    +0.000 HD
ATOM    184  H   ALA A  15     -21.323   6.992 -11.821  1.00  0.00    +0.000 HD
ATOM    185  H   SER A  16     -24.674   5.200  -9.139  1.00  0.00    +0.000 HD
ATOM    186  H   SER A  16     -26.644   4.249  -8.915  1.00  0.00    +0.000 HD
ATOM    187  H   ASP A  17     -23.553   0.767  -9.643  1.00  0.00    +0.000 HD
ATOM    188  H   ASP A  17     -22.906   1.849 -11.670  1.00  0.00    +0.000 HD
ATOM    189  H   TRP A  18     -26.852  -0.740 -12.332  1.00  0.00    +0.000 HD
ATOM    190  H   ILE A  19     -26.448  -5.038 -10.936  1.00  0.00    +0.000 HD
ATOM    191  H   ARG A  20     -28.932  -6.736 -14.346  1.00  0.00    +0.000 HD
ATOM    192  H   ARG A  20     -33.192  -8.967 -20.332  1.00  0.00    +0.000 HD
ATOM    193  H   ARG A  20     -33.780  -8.284 -18.884  1.00  0.00    +0.000 HD
ATOM    194  H   ARG A  20     -31.206  -9.912 -20.418  1.00  0.00    +0.000 HD
ATOM    195  H   ARG A  20     -30.211  -9.984 -19.036  1.00  0.00    +0.000 HD
ATOM    196  H   ARG A  21     -27.839  -9.282 -12.857  1.00  0.00    +0.000 HD
ATOM    197  H   ARG A  21     -28.858 -14.519 -17.292  1.00  0.00    +0.000 HD
ATOM    198  H   ARG A  21     -30.357 -15.301 -17.064  1.00  0.00    +0.000 HD
ATOM    199  H   ARG A  21     -32.218 -14.135 -16.841  1.00  0.00    +0.000 HD
ATOM    200  H   ARG A  21     -32.197 -12.432 -16.932  1.00  0.00    +0.000 HD
ATOM    201  H   ARG A  21     -26.925 -11.014 -12.146  1.00  0.00    +0.000 HD
ENDROOT
TORSDOF 0
