REMARK  Name = /var/folders/yp/yjbh3p597675h2qddgqr02y00000gn/T/tmp0q6rrfa9.pdb
REMARK   1 CREATED WITH OPENMM 8.6.1, 2026-10-07
REMARK                            x       y       z     vdW  Elec       q    Type
REMARK                         _______ _______ _______ _____ _____    ______ ____
ROOT
ATOM      1  N   MET A   1      18.674  -0.460   2.094  1.00  0.00    -0.123 NA
ATOM      2  CA  MET A   1      19.995  -1.109   2.244  1.00  0.00    +0.170 C 
ATOM      3  C   MET A   1      20.637  -1.305   0.882  1.00  0.00    +0.259 C 
ATOM      4  O   MET A   1      19.957  -1.635  -0.095  1.00  0.00    -0.272 OA
ATOM      5  CB  MET A   1      19.895  -2.440   3.000  1.00  0.00    +0.040 C 
ATOM      6  CG  MET A   1      19.303  -3.581   2.161  1.00  0.00    +0.060 C 
ATOM      7  SD  MET A   1      20.548  -4.566   1.281  1.00  0.00    -0.139 S 
ATOM      8  CE  MET A   1      20.840  -5.838   2.534  1.00  0.00    +0.069 C 
ATOM      9  N   LYS A   2      21.941  -1.045   0.790  1.00  0.00    -0.197 N 
ATOM     10  CA  LYS A   2      22.573  -0.762  -0.495  1.00  0.00    +0.173 C 
ATOM     11  C   LYS A   2      22.610  -1.984  -1.408  1.00  0.00    +0.262 C 
ATOM     12  O   LYS A   2      23.020  -3.067  -0.988  1.00  0.00    -0.271 OA
ATOM     13  CB  LYS A   2      23.980  -0.199  -0.247  1.00  0.00    +0.031 C 
ATOM     14  CG  LYS A   2      24.666   0.344  -1.500  1.00  0.00    +0.004 C 
ATOM     15  CD  LYS A   2      23.847   1.391  -2.286  1.00  0.00    +0.021 C 
ATOM     16  CE  LYS A   2      23.792   2.651  -1.431  1.00  0.00    +0.109 C 
ATOM     17  NZ  LYS A   2      23.179   3.806  -2.099  1.00  0.00    -0.131 NA
ATOM     18  N   LEU A   3      22.257  -1.780  -2.675  1.00  0.00    -0.196 N 
ATOM     19  CA  LEU A   3      22.850  -2.540  -3.767  1.00  0.00    +0.173 C 
ATOM     20  C   LEU A   3      24.190  -1.916  -4.179  1.00  0.00    +0.262 C 
ATOM     21  O   LEU A   3      24.308  -0.696  -4.293  1.00  0.00    -0.271 OA
ATOM     22  CB  LEU A   3      21.907  -2.552  -4.978  1.00  0.00    +0.031 C 
ATOM     23  CG  LEU A   3      20.686  -3.472  -4.891  1.00  0.00    +0.002 C 
ATOM     24  CD1 LEU A   3      20.347  -4.033  -6.273  1.00  0.00    +0.000 C 
ATOM     25  CD2 LEU A   3      19.451  -2.686  -4.477  1.00  0.00    +0.000 C 
ATOM     26  N   ALA A   4      25.158  -2.760  -4.525  1.00  0.00    -0.196 N 
ATOM     27  CA  ALA A   4      26.049  -2.434  -5.632  1.00  0.00    +0.171 C 
ATOM     28  C   ALA A   4      25.263  -2.376  -6.956  1.00  0.00    +0.246 C 
ATOM     29  O   ALA A   4      24.256  -3.068  -7.116  1.00  0.00    -0.273 OA
ATOM     30  CB  ALA A   4      27.144  -3.500  -5.734  1.00  0.00    +0.033 C 
ATOM     31  N   PRO A   5      25.740  -1.626  -7.952  1.00  0.00    -0.272 N 
ATOM     32  CA  PRO A   5      25.418  -1.891  -9.348  1.00  0.00    +0.154 C 
ATOM     33  C   PRO A   5      26.151  -3.125  -9.888  1.00  0.00    +0.260 C 
ATOM     34  O   PRO A   5      26.992  -3.730  -9.217  1.00  0.00    -0.272 OA
ATOM     35  CB  PRO A   5      25.830  -0.624 -10.087  1.00  0.00    +0.031 C 
ATOM     36  CG  PRO A   5      27.012  -0.123  -9.268  1.00  0.00    +0.024 C 
ATOM     37  CD  PRO A   5      26.644  -0.494  -7.836  1.00  0.00    +0.094 C 
ATOM     38  N   PHE A   6      25.775  -3.516 -11.105  1.00  0.00    -0.196 N 
ATOM     39  CA  PHE A   6      25.727  -4.921 -11.490  1.00  0.00    +0.177 C 
ATOM     40  C   PHE A   6      27.106  -5.565 -11.583  1.00  0.00    +0.262 C 
ATOM     41  O   PHE A   6      27.890  -5.251 -12.483  1.00  0.00    -0.271 OA
ATOM     42  CB  PHE A   6      24.970  -5.073 -12.819  1.00  0.00    +0.057 C 
ATOM     43  CG  PHE A   6      23.597  -5.672 -12.652  1.00  0.00    -0.020 A 
ATOM     44  CD1 PHE A   6      23.420  -7.059 -12.798  1.00  0.00    -0.004 A 
ATOM     45  CE1 PHE A   6      22.147  -7.627 -12.645  1.00  0.00    -0.000 A 
ATOM     46  CD2 PHE A   6      22.498  -4.851 -12.356  1.00  0.00    -0.004 A 
ATOM     47  CE2 PHE A   6      21.222  -5.418 -12.210  1.00  0.00    -0.000 A 
ATOM     48  CZ  PHE A   6      21.047  -6.806 -12.352  1.00  0.00    -0.000 A 
ATOM     49  N   ALA A   7      27.354  -6.535 -10.704  1.00  0.00    -0.196 N 
ATOM     50  CA  ALA A   7      28.200  -7.663 -11.059  1.00  0.00    +0.173 C 
ATOM     51  C   ALA A   7      27.494  -8.538 -12.100  1.00  0.00    +0.262 C 
ATOM     52  O   ALA A   7      26.266  -8.664 -12.099  1.00  0.00    -0.271 OA
ATOM     53  CB  ALA A   7      28.544  -8.493  -9.819  1.00  0.00    +0.033 C 
ATOM     54  N   LEU A   8      28.291  -9.208 -12.927  1.00  0.00    -0.196 N 
ATOM     55  CA  LEU A   8      27.926 -10.512 -13.460  1.00  0.00    +0.173 C 
ATOM     56  C   LEU A   8      28.566 -11.595 -12.579  1.00  0.00    +0.262 C 
ATOM     57  O   LEU A   8      29.741 -11.488 -12.216  1.00  0.00    -0.271 OA
ATOM     58  CB  LEU A   8      28.380 -10.696 -14.909  1.00  0.00    +0.031 C 
ATOM     59  CG  LEU A   8      27.636  -9.835 -15.941  1.00  0.00    +0.002 C 
ATOM     60  CD1 LEU A   8      28.164 -10.163 -17.334  1.00  0.00    +0.000 C 
ATOM     61  CD2 LEU A   8      27.899  -8.342 -15.777  1.00  0.00    +0.000 C 
ATOM     62  N   LEU A   9      27.838 -12.656 -12.247  1.00  0.00    -0.196 N 
ATOM     63  CA  LEU A   9      26.441 -12.527 -11.815  1.00  0.00    +0.173 C 
ATOM     64  C   LEU A   9      26.392 -11.927 -10.404  1.00  0.00    +0.262 C 
ATOM     65  O   LEU A   9      27.375 -11.952  -9.661  1.00  0.00    -0.271 OA
ATOM     66  CB  LEU A   9      25.741 -13.896 -11.829  1.00  0.00    +0.031 C 
ATOM     67  CG  LEU A   9      25.024 -14.238 -13.150  1.00  0.00    +0.002 C 
ATOM     68  CD1 LEU A   9      23.654 -14.852 -12.865  1.00  0.00    +0.000 C 
ATOM     69  CD2 LEU A   9      25.778 -15.314 -13.920  1.00  0.00    +0.000 C 
ATOM     70  N   VAL A  10      25.201 -11.477 -10.015  1.00  0.00    -0.196 N 
ATOM     71  CA  VAL A  10      24.743 -11.628  -8.634  1.00  0.00    +0.173 C 
ATOM     72  C   VAL A  10      23.540 -12.556  -8.628  1.00  0.00    +0.262 C 
ATOM     73  O   VAL A  10      22.531 -12.291  -9.285  1.00  0.00    -0.271 OA
ATOM     74  CB  VAL A  10      24.378 -10.293  -7.974  1.00  0.00    +0.029 C 
ATOM     75  CG1 VAL A  10      24.053 -10.491  -6.491  1.00  0.00    +0.002 C 
ATOM     76  CG2 VAL A  10      25.527  -9.295  -8.075  1.00  0.00    +0.002 C 
ATOM     77  N   VAL A  11      23.636 -13.640  -7.872  1.00  0.00    -0.196 N 
ATOM     78  CA  VAL A  11      22.465 -14.425  -7.500  1.00  0.00    +0.173 C 
ATOM     79  C   VAL A  11      21.671 -13.682  -6.426  1.00  0.00    +0.262 C 
ATOM     80  O   VAL A  11      22.222 -13.221  -5.428  1.00  0.00    -0.271 OA
ATOM     81  CB  VAL A  11      22.888 -15.812  -7.010  1.00  0.00    +0.029 C 
ATOM     82  CG1 VAL A  11      23.325 -16.711  -8.160  1.00  0.00    +0.002 C 
ATOM     83  CG2 VAL A  11      23.988 -15.778  -5.945  1.00  0.00    +0.002 C 
ATOM     84  N   PHE A  12      20.360 -13.594  -6.604  1.00  0.00    -0.196 N 
ATOM     85  CA  PHE A  12      19.419 -13.369  -5.498  1.00  0.00    +0.177 C 
ATOM     86  C   PHE A  12      18.744 -14.656  -5.061  1.00  0.00    +0.262 C 
ATOM     87  O   PHE A  12      18.401 -14.794  -3.894  1.00  0.00    -0.271 OA
ATOM     88  CB  PHE A  12      18.318 -12.383  -5.900  1.00  0.00    +0.057 C 
ATOM     89  CG  PHE A  12      18.071 -12.285  -7.387  1.00  0.00    -0.020 A 
ATOM     90  CD1 PHE A  12      18.252 -11.048  -8.020  1.00  0.00    -0.004 A 
ATOM     91  CE1 PHE A  12      18.066 -10.937  -9.404  1.00  0.00    -0.000 A 
ATOM     92  CD2 PHE A  12      17.692 -13.408  -8.149  1.00  0.00    -0.004 A 
ATOM     93  CE2 PHE A  12      17.556 -13.310  -9.537  1.00  0.00    -0.000 A 
ATOM     94  CZ  PHE A  12      17.735 -12.069 -10.164  1.00  0.00    -0.000 A 
ATOM     95  N   ALA A  13      18.487 -15.573  -5.993  1.00  0.00    -0.196 N 
ATOM     96  CA  ALA A  13      17.616 -16.713  -5.762  1.00  0.00    +0.173 C 
ATOM     97  C   ALA A  13      18.088 -17.635  -4.634  1.00  0.00    +0.262 C 
ATOM     98  O   ALA A  13      17.290 -18.014  -3.781  1.00  0.00    -0.271 OA
ATOM     99  CB  ALA A  13      17.470 -17.505  -7.066  1.00  0.00    +0.033 C 
ATOM    100  N   GLY A  14      19.356 -18.029  -4.553  1.00  0.00    -0.194 N 
ATOM    101  CA  GLY A  14      20.559 -17.258  -4.844  1.00  0.00    +0.201 C 
ATOM    102  C   GLY A  14      21.120 -16.572  -3.603  1.00  0.00    +0.264 C 
ATOM    103  O   GLY A  14      22.323 -16.638  -3.386  1.00  0.00    -0.271 OA
ATOM    104  N   ALA A  15      20.285 -16.055  -2.709  1.00  0.00    -0.196 N 
ATOM    105  CA  ALA A  15      20.606 -15.839  -1.316  1.00  0.00    +0.173 C 
ATOM    106  C   ALA A  15      20.368 -17.149  -0.572  1.00  0.00    +0.262 C 
ATOM    107  O   ALA A  15      19.274 -17.722  -0.623  1.00  0.00    -0.271 OA
ATOM    108  CB  ALA A  15      19.751 -14.711  -0.730  1.00  0.00    +0.033 C 
ATOM    109  N   SER A  16      21.386 -17.600   0.150  1.00  0.00    -0.194 N 
ATOM    110  CA  SER A  16      21.173 -18.460   1.307  1.00  0.00    +0.205 C 
ATOM    111  C   SER A  16      20.675 -17.631   2.491  1.00  0.00    +0.264 C 
ATOM    112  O   SER A  16      20.928 -16.425   2.582  1.00  0.00    -0.271 OA
ATOM    113  CB  SER A  16      22.466 -19.184   1.689  1.00  0.00    +0.213 C 
ATOM    114  OG  SER A  16      23.418 -18.280   2.224  1.00  0.00    -0.218 OA
ATOM    115  N   ASP A  17      20.001 -18.289   3.427  1.00  0.00    -0.196 N 
ATOM    116  CA  ASP A  17      19.943 -17.804   4.800  1.00  0.00    +0.184 C 
ATOM    117  C   ASP A  17      21.132 -18.315   5.607  1.00  0.00    +0.262 C 
ATOM    118  O   ASP A  17      21.520 -19.481   5.524  1.00  0.00    -0.271 OA
ATOM    119  CB  ASP A  17      18.638 -18.227   5.483  1.00  0.00    +0.145 C 
ATOM    120  CG  ASP A  17      17.430 -17.404   5.036  1.00  0.00    +0.367 C 
ATOM    121  OD1 ASP A  17      17.599 -16.298   4.472  1.00  0.00    -0.246 OA
ATOM    122  OD2 ASP A  17      16.285 -17.848   5.281  1.00  0.00    -0.246 OA
ATOM    123  N   TRP A  18      21.615 -17.442   6.477  1.00  0.00    -0.196 N 
ATOM    124  CA  TRP A  18      21.677 -17.718   7.911  1.00  0.00    +0.177 C 
ATOM    125  C   TRP A  18      21.102 -16.523   8.685  1.00  0.00    +0.262 C 
ATOM    126  O   TRP A  18      20.717 -15.496   8.123  1.00  0.00    -0.271 OA
ATOM    127  CB  TRP A  18      23.113 -18.067   8.348  1.00  0.00    +0.059 C 
ATOM    128  CG  TRP A  18      24.204 -17.226   7.761  1.00  0.00    +0.000 C 
ATOM    129  CD1 TRP A  18      25.502 -17.583   7.637  1.00  0.00    +0.094 C 
ATOM    130  CD2 TRP A  18      24.100 -15.923   7.119  1.00  0.00    +0.011 C 
ATOM    131  NE1 TRP A  18      26.186 -16.599   6.946  1.00  0.00    -0.248 NA
ATOM    132  CE2 TRP A  18      25.355 -15.556   6.595  1.00  0.00    +0.063 C 
ATOM    133  CE3 TRP A  18      23.122 -14.929   7.037  1.00  0.00    +0.001 C 
ATOM    134  CZ2 TRP A  18      25.535 -14.338   5.922  1.00  0.00    +0.072 C 
ATOM    135  CZ3 TRP A  18      23.207 -13.793   6.248  1.00  0.00    -0.004 C 
ATOM    136  CH2 TRP A  18      24.445 -13.475   5.712  1.00  0.00    -0.020 C 
ATOM    137  N   ILE A  19      21.036 -16.671  10.000  1.00  0.00    -0.196 N 
ATOM    138  CA  ILE A  19      21.409 -15.610  10.930  1.00  0.00    +0.173 C 
ATOM    139  C   ILE A  19      22.670 -16.071  11.658  1.00  0.00    +0.262 C 
ATOM    140  O   ILE A  19      22.604 -16.735  12.694  1.00  0.00    -0.271 OA
ATOM    141  CB  ILE A  19      20.288 -15.267  11.929  1.00  0.00    +0.029 C 
ATOM    142  CG1 ILE A  19      18.924 -15.176  11.231  1.00  0.00    +0.002 C 
ATOM    143  CG2 ILE A  19      20.630 -13.949  12.646  1.00  0.00    +0.002 C 
ATOM    144  CD1 ILE A  19      17.779 -14.843  12.189  1.00  0.00    +0.000 C 
ATOM    145  N   ARG A  20      23.826 -15.709  11.101  1.00  0.00    -0.196 N 
ATOM    146  CA  ARG A  20      24.901 -15.127  11.912  1.00  0.00    +0.173 C 
ATOM    147  C   ARG A  20      24.692 -13.614  12.049  1.00  0.00    +0.262 C 
ATOM    148  O   ARG A  20      23.570 -13.121  11.942  1.00  0.00    -0.271 OA
ATOM    149  CB  ARG A  20      26.274 -15.477  11.325  1.00  0.00    +0.033 C 
ATOM    150  CG  ARG A  20      26.534 -14.781   9.982  1.00  0.00    +0.029 C 
ATOM    151  CD  ARG A  20      27.983 -14.982   9.561  1.00  0.00    +0.129 C 
ATOM    152  NE  ARG A  20      28.196 -14.491   8.190  1.00  0.00    -0.234 NA
ATOM    153  CZ  ARG A  20      29.048 -13.566   7.797  1.00  0.00    +0.284 C 
ATOM    154  NH1 ARG A  20      29.771 -12.885   8.642  1.00  0.00    -0.104 N 
ATOM    155  NH2 ARG A  20      29.194 -13.309   6.528  1.00  0.00    -0.104 N 
ATOM    156  N   ARG A  21      25.785 -12.912  12.336  1.00  0.00    -0.194 N 
ATOM    157  CA  ARG A  21      25.825 -11.782  13.260  1.00  0.00    +0.198 C 
ATOM    158  C   ARG A  21      25.578 -10.434  12.596  1.00  0.00    +0.384 C 
ATOM    159  O   ARG A  21      26.363  -9.492  12.824  1.00  0.00    -0.244 OA
ATOM    160  CB  ARG A  21      27.173 -11.820  13.998  1.00  0.00    +0.035 C 
ATOM    161  CG  ARG A  21      27.377 -13.076  14.849  1.00  0.00    +0.029 C 
ATOM    162  CD  ARG A  21      28.610 -12.896  15.740  1.00  0.00    +0.129 C 
ATOM    163  NE  ARG A  21      29.671 -13.877  15.472  1.00  0.00    -0.234 NA
ATOM    164  CZ  ARG A  21      30.882 -13.576  15.046  1.00  0.00    +0.284 C 
ATOM    165  NH1 ARG A  21      31.108 -12.638  14.168  1.00  0.00    -0.104 N 
ATOM    166  NH2 ARG A  21      31.902 -14.222  15.531  1.00  0.00    -0.104 N 
ATOM    167  OXT ARG A  21      24.586 -10.288  11.859  1.00  0.00    -0.244 OA
ATOM    168  H   MET A   1      18.782   0.419   1.587  1.00  0.00    +0.000 HD
ATOM    169  H   MET A   1      18.280  -0.275   3.017  1.00  0.00    +0.000 HD
ATOM    170  H   LYS A   2      22.490  -1.043   1.607  1.00  0.00    +0.000 HD
ATOM    171  H   LYS A   2      23.734   4.061  -2.916  1.00  0.00    +0.000 HD
ATOM    172  H   LYS A   2      23.144   4.594  -1.452  1.00  0.00    +0.000 HD
ATOM    173  H   LEU A   3      21.577  -1.098  -2.879  1.00  0.00    +0.000 HD
ATOM    174  H   ALA A   4      25.272  -3.606  -4.034  1.00  0.00    +0.000 HD
ATOM    175  H   PHE A   6      25.521  -2.833 -11.767  1.00  0.00    +0.000 HD
ATOM    176  H   ALA A   7      26.960  -6.487  -9.803  1.00  0.00    +0.000 HD
ATOM    177  H   LEU A   8      29.154  -8.810 -13.187  1.00  0.00    +0.000 HD
ATOM    178  H   LEU A   9      28.245 -13.551 -12.294  1.00  0.00    +0.000 HD
ATOM    179  H   VAL A  10      24.617 -11.032 -10.671  1.00  0.00    +0.000 HD
ATOM    180  H   VAL A  11      24.523 -13.924  -7.552  1.00  0.00    +0.000 HD
ATOM    181  H   PHE A  12      20.002 -13.684  -7.516  1.00  0.00    +0.000 HD
ATOM    182  H   ALA A  13      18.907 -15.474  -6.879  1.00  0.00    +0.000 HD
ATOM    183  H   GLY A  14      19.500 -18.957  -4.260  1.00  0.00    +0.000 HD
ATOM    184  H   ALA A  15      19.385 -15.801  -3.017  1.00  0.00    +0.000 HD
ATOM    185  H   SER A  16      22.304 -17.349  -0.101  1.00  0.00    +0.000 HD
ATOM    186  H   SER A  16      23.058 -17.867   3.024  1.00  0.00    +0.000 HD
ATOM    187  H   ASP A  17      19.531 -19.121   3.189  1.00  0.00    +0.000 HD
ATOM    188  H   ASP A  17      16.185 -18.678   5.703  1.00  0.00    +0.000 HD
ATOM    189  H   TRP A  18      21.944 -16.575   6.146  1.00  0.00    +0.000 HD
ATOM    190  H   ILE A  19      20.724 -17.531  10.365  1.00  0.00    +0.000 HD
ATOM    191  H   ARG A  20      23.960 -15.834  10.133  1.00  0.00    +0.000 HD
ATOM    192  H   ARG A  20      30.398 -12.201   8.313  1.00  0.00    +0.000 HD
ATOM    193  H   ARG A  20      29.689 -13.055   9.608  1.00  0.00    +0.000 HD
ATOM    194  H   ARG A  20      29.831 -12.617   6.236  1.00  0.00    +0.000 HD
ATOM    195  H   ARG A  20      28.668 -13.806   5.861  1.00  0.00    +0.000 HD
ATOM    196  H   ARG A  21      26.626 -13.172  11.895  1.00  0.00    +0.000 HD
ATOM    197  H   ARG A  21      32.030 -12.447  13.878  1.00  0.00    +0.000 HD
ATOM    198  H   ARG A  21      30.358 -12.121  13.794  1.00  0.00    +0.000 HD
ATOM    199  H   ARG A  21      32.812 -14.007  15.222  1.00  0.00    +0.000 HD
ATOM    200  H   ARG A  21      31.763 -14.925  16.206  1.00  0.00    +0.000 HD
ATOM    201  H   ARG A  21      24.009 -11.010  11.702  1.00  0.00    +0.000 HD
ENDROOT
TORSDOF 0
