REMARK  Name = /var/folders/yp/yjbh3p597675h2qddgqr02y00000gn/T/tmp1za5uvyk.pdb
REMARK     285 UNITARY VALUES FOR THE UNIT CELL AUTOMATICALLY SET
REMARK     285 BY MDANALYSIS PDBWRITER BECAUSE UNIT CELL INFORMATION
REMARK     285 WAS MISSING.
REMARK     285 PROTEIN DATA BANK CONVENTIONS REQUIRE THAT
REMARK     285 CRYST1 RECORD IS INCLUDED, BUT THE VALUES ON
REMARK     285 THIS RECORD ARE MEANINGLESS.
REMARK     285 UNITARY VALUES FOR THE UNIT CELL AUTOMATICALLY SET
REMARK     285 BY MDANALYSIS PDBWRITER BECAUSE UNIT CELL INFORMATION
REMARK     285 WAS MISSING.
REMARK     285 PROTEIN DATA BANK CONVENTIONS REQUIRE THAT
REMARK     285 CRYST1 RECORD IS INCLUDED, BUT THE VALUES ON
REMARK     285 THIS RECORD ARE MEANINGLESS.
REMARK                            x       y       z     vdW  Elec       q    Type
REMARK                         _______ _______ _______ _____ _____    ______ ____
ROOT
ATOM      1  N   MET A   1     -17.426 -16.098 -19.853  1.00  0.00    -0.123 NA
ATOM      2  CA  MET A   1     -15.978 -16.246 -19.740  1.00  0.00    +0.170 C 
ATOM      3  C   MET A   1     -15.548 -17.663 -20.081  1.00  0.00    +0.259 C 
ATOM      4  O   MET A   1     -16.333 -18.601 -19.957  1.00  0.00    -0.272 OA
ATOM      5  CB  MET A   1     -15.504 -15.896 -18.338  1.00  0.00    +0.040 C 
ATOM      6  CG  MET A   1     -14.030 -15.530 -18.266  1.00  0.00    +0.060 C 
ATOM      7  SD  MET A   1     -13.655 -13.970 -19.102  1.00  0.00    -0.139 S 
ATOM      8  CE  MET A   1     -12.461 -14.524 -20.314  1.00  0.00    +0.069 C 
ATOM      9  N   LYS A   2     -14.299 -17.821 -20.511  1.00  0.00    -0.197 N 
ATOM     10  CA  LYS A   2     -13.908 -18.984 -21.300  1.00  0.00    +0.173 C 
ATOM     11  C   LYS A   2     -13.644 -20.186 -20.407  1.00  0.00    +0.262 C 
ATOM     12  O   LYS A   2     -12.843 -20.108 -19.477  1.00  0.00    -0.271 OA
ATOM     13  CB  LYS A   2     -12.668 -18.685 -22.127  1.00  0.00    +0.030 C 
ATOM     14  CG  LYS A   2     -11.982 -19.926 -22.677  1.00  0.00    +0.004 C 
ATOM     15  CD  LYS A   2     -10.991 -19.583 -23.777  1.00  0.00    +0.018 C 
ATOM     16  CE  LYS A   2     -11.483 -18.501 -24.626  1.00  0.00    +0.094 C 
ATOM     17  NZ  LYS A   2     -10.917 -18.118 -25.768  1.00  0.00    -0.129 NA
ATOM     18  N   LEU A   3     -14.316 -21.298 -20.689  1.00  0.00    -0.196 N 
ATOM     19  CA  LEU A   3     -13.642 -22.588 -20.799  1.00  0.00    +0.173 C 
ATOM     20  C   LEU A   3     -12.805 -22.654 -22.064  1.00  0.00    +0.262 C 
ATOM     21  O   LEU A   3     -13.224 -22.175 -23.117  1.00  0.00    -0.271 OA
ATOM     22  CB  LEU A   3     -14.652 -23.725 -20.798  1.00  0.00    +0.031 C 
ATOM     23  CG  LEU A   3     -15.473 -23.897 -19.518  1.00  0.00    +0.002 C 
ATOM     24  CD1 LEU A   3     -15.392 -25.337 -19.028  1.00  0.00    +0.000 C 
ATOM     25  CD2 LEU A   3     -16.964 -23.838 -19.826  1.00  0.00    +0.000 C 
ATOM     26  N   ALA A   4     -11.620 -23.248 -21.965  1.00  0.00    -0.196 N 
ATOM     27  CA  ALA A   4     -10.832 -23.578 -23.149  1.00  0.00    +0.171 C 
ATOM     28  C   ALA A   4     -11.127 -24.990 -23.625  1.00  0.00    +0.246 C 
ATOM     29  O   ALA A   4     -11.484 -25.853 -22.824  1.00  0.00    -0.273 OA
ATOM     30  CB  ALA A   4      -9.345 -23.437 -22.865  1.00  0.00    +0.033 C 
ATOM     31  N   PRO A   5     -10.977 -25.225 -24.925  1.00  0.00    -0.272 N 
ATOM     32  CA  PRO A   5      -9.917 -26.098 -25.423  1.00  0.00    +0.154 C 
ATOM     33  C   PRO A   5      -8.533 -25.648 -24.991  1.00  0.00    +0.260 C 
ATOM     34  O   PRO A   5      -8.322 -24.473 -24.695  1.00  0.00    -0.272 OA
ATOM     35  CB  PRO A   5     -10.037 -25.997 -26.935  1.00  0.00    +0.031 C 
ATOM     36  CG  PRO A   5     -10.575 -24.628 -27.168  1.00  0.00    +0.024 C 
ATOM     37  CD  PRO A   5     -11.498 -24.371 -26.015  1.00  0.00    +0.094 C 
ATOM     38  N   PHE A   6      -7.586 -26.581 -24.955  1.00  0.00    -0.196 N 
ATOM     39  CA  PHE A   6      -6.301 -26.338 -24.304  1.00  0.00    +0.177 C 
ATOM     40  C   PHE A   6      -5.442 -25.406 -25.145  1.00  0.00    +0.262 C 
ATOM     41  O   PHE A   6      -5.525 -25.418 -26.371  1.00  0.00    -0.271 OA
ATOM     42  CB  PHE A   6      -5.556 -27.641 -24.068  1.00  0.00    +0.057 C 
ATOM     43  CG  PHE A   6      -5.386 -28.473 -25.305  1.00  0.00    -0.020 A 
ATOM     44  CD1 PHE A   6      -4.776 -27.931 -26.429  1.00  0.00    -0.004 A 
ATOM     45  CE1 PHE A   6      -4.616 -28.703 -27.574  1.00  0.00    -0.000 A 
ATOM     46  CD2 PHE A   6      -5.838 -29.789 -25.325  1.00  0.00    -0.004 A 
ATOM     47  CE2 PHE A   6      -5.679 -30.560 -26.471  1.00  0.00    -0.000 A 
ATOM     48  CZ  PHE A   6      -5.068 -30.017 -27.595  1.00  0.00    -0.000 A 
ATOM     49  N   ALA A   7      -4.619 -24.597 -24.483  1.00  0.00    -0.196 N 
ATOM     50  CA  ALA A   7      -5.087 -23.337 -23.915  1.00  0.00    +0.173 C 
ATOM     51  C   ALA A   7      -5.504 -22.366 -25.009  1.00  0.00    +0.262 C 
ATOM     52  O   ALA A   7      -6.119 -21.338 -24.727  1.00  0.00    -0.271 OA
ATOM     53  CB  ALA A   7      -4.006 -22.698 -23.057  1.00  0.00    +0.033 C 
ATOM     54  N   LEU A   8      -5.172 -22.691 -26.254  1.00  0.00    -0.196 N 
ATOM     55  CA  LEU A   8      -4.822 -21.671 -27.238  1.00  0.00    +0.173 C 
ATOM     56  C   LEU A   8      -5.974 -21.428 -28.199  1.00  0.00    +0.262 C 
ATOM     57  O   LEU A   8      -6.519 -22.372 -28.771  1.00  0.00    -0.271 OA
ATOM     58  CB  LEU A   8      -3.585 -22.080 -28.020  1.00  0.00    +0.031 C 
ATOM     59  CG  LEU A   8      -2.270 -22.099 -27.240  1.00  0.00    +0.002 C 
ATOM     60  CD1 LEU A   8      -1.085 -22.083 -28.199  1.00  0.00    +0.000 C 
ATOM     61  CD2 LEU A   8      -2.040 -23.467 -26.608  1.00  0.00    +0.000 C 
ATOM     62  N   LEU A   9      -6.346 -20.164 -28.378  1.00  0.00    -0.196 N 
ATOM     63  CA  LEU A   9      -7.337 -19.533 -27.512  1.00  0.00    +0.173 C 
ATOM     64  C   LEU A   9      -8.725 -20.089 -27.784  1.00  0.00    +0.262 C 
ATOM     65  O   LEU A   9      -9.054 -20.427 -28.920  1.00  0.00    -0.271 OA
ATOM     66  CB  LEU A   9      -7.344 -18.027 -27.710  1.00  0.00    +0.031 C 
ATOM     67  CG  LEU A   9      -6.170 -17.262 -27.098  1.00  0.00    +0.002 C 
ATOM     68  CD1 LEU A   9      -6.383 -15.760 -27.246  1.00  0.00    +0.000 C 
ATOM     69  CD2 LEU A   9      -4.924 -17.407 -27.968  1.00  0.00    +0.000 C 
ATOM     70  N   VAL A  10      -9.543 -20.186 -26.740  1.00  0.00    -0.196 N 
ATOM     71  CA  VAL A  10     -10.979 -20.385 -26.913  1.00  0.00    +0.173 C 
ATOM     72  C   VAL A  10     -11.625 -19.090 -27.379  1.00  0.00    +0.260 C 
ATOM     73  O   VAL A  10     -11.721 -18.836 -28.579  1.00  0.00    -0.272 OA
ATOM     74  CB  VAL A  10     -11.647 -20.854 -25.631  1.00  0.00    +0.029 C 
ATOM     75  CG1 VAL A  10     -12.502 -22.093 -25.890  1.00  0.00    +0.002 C 
ATOM     76  CG2 VAL A  10     -10.595 -21.218 -24.586  1.00  0.00    +0.004 C 
ATOM     77  N   VAL A  11     -12.069 -18.271 -26.430  1.00  0.00    -0.198 N 
ATOM     78  CA  VAL A  11     -13.189 -18.639 -25.571  1.00  0.00    +0.171 C 
ATOM     79  C   VAL A  11     -14.476 -18.644 -26.380  1.00  0.00    +0.261 C 
ATOM     80  O   VAL A  11     -15.270 -19.580 -26.286  1.00  0.00    -0.271 OA
ATOM     81  CB  VAL A  11     -13.335 -17.691 -24.392  1.00  0.00    +0.030 C 
ATOM     82  CG1 VAL A  11     -12.439 -18.128 -23.235  1.00  0.00    +0.022 C 
ATOM     83  CG2 VAL A  11     -12.929 -16.275 -24.793  1.00  0.00    +0.002 C 
ATOM     84  N   PHE A  12     -14.685 -17.599 -27.174  1.00  0.00    -0.196 N 
ATOM     85  CA  PHE A  12     -15.586 -16.516 -26.787  1.00  0.00    +0.177 C 
ATOM     86  C   PHE A  12     -16.879 -16.581 -27.585  1.00  0.00    +0.262 C 
ATOM     87  O   PHE A  12     -17.902 -16.046 -27.160  1.00  0.00    -0.271 OA
ATOM     88  CB  PHE A  12     -14.929 -15.163 -26.996  1.00  0.00    +0.057 C 
ATOM     89  CG  PHE A  12     -15.327 -14.132 -25.981  1.00  0.00    -0.020 A 
ATOM     90  CD1 PHE A  12     -16.530 -13.449 -26.120  1.00  0.00    -0.004 A 
ATOM     91  CE1 PHE A  12     -16.901 -12.494 -25.181  1.00  0.00    -0.000 A 
ATOM     92  CD2 PHE A  12     -14.495 -13.860 -24.902  1.00  0.00    -0.004 A 
ATOM     93  CE2 PHE A  12     -14.865 -12.905 -23.962  1.00  0.00    -0.000 A 
ATOM     94  CZ  PHE A  12     -16.068 -12.221 -24.102  1.00  0.00    -0.000 A 
ATOM     95  N   ALA A  13     -16.834 -17.235 -28.742  1.00  0.00    -0.196 N 
ATOM     96  CA  ALA A  13     -17.922 -17.142 -29.711  1.00  0.00    +0.173 C 
ATOM     97  C   ALA A  13     -19.189 -17.785 -29.171  1.00  0.00    +0.262 C 
ATOM     98  O   ALA A  13     -19.164 -18.926 -28.712  1.00  0.00    -0.271 OA
ATOM     99  CB  ALA A  13     -17.535 -17.805 -31.023  1.00  0.00    +0.033 C 
ATOM    100  N   GLY A  14     -20.299 -17.054 -29.228  1.00  0.00    -0.194 N 
ATOM    101  CA  GLY A  14     -21.361 -17.354 -30.183  1.00  0.00    +0.201 C 
ATOM    102  C   GLY A  14     -22.403 -18.273 -29.564  1.00  0.00    +0.264 C 
ATOM    103  O   GLY A  14     -22.311 -18.616 -28.387  1.00  0.00    -0.271 OA
ATOM    104  N   ALA A  15     -23.394 -18.671 -30.356  1.00  0.00    -0.196 N 
ATOM    105  CA  ALA A  15     -24.484 -19.501 -29.851  1.00  0.00    +0.173 C 
ATOM    106  C   ALA A  15     -24.007 -20.913 -29.563  1.00  0.00    +0.262 C 
ATOM    107  O   ALA A  15     -23.131 -21.430 -30.255  1.00  0.00    -0.271 OA
ATOM    108  CB  ALA A  15     -25.632 -19.545 -30.845  1.00  0.00    +0.033 C 
ATOM    109  N   SER A  16     -24.582 -21.541 -28.541  1.00  0.00    -0.194 N 
ATOM    110  CA  SER A  16     -24.427 -22.978 -28.346  1.00  0.00    +0.205 C 
ATOM    111  C   SER A  16     -25.260 -23.763 -29.346  1.00  0.00    +0.264 C 
ATOM    112  O   SER A  16     -24.841 -24.823 -29.813  1.00  0.00    -0.271 OA
ATOM    113  CB  SER A  16     -24.824 -23.375 -26.933  1.00  0.00    +0.213 C 
ATOM    114  OG  SER A  16     -26.146 -22.952 -26.646  1.00  0.00    -0.218 OA
ATOM    115  N   ASP A  17     -26.439 -23.246 -29.677  1.00  0.00    -0.196 N 
ATOM    116  CA  ASP A  17     -27.442 -22.932 -28.663  1.00  0.00    +0.184 C 
ATOM    117  C   ASP A  17     -28.539 -23.984 -28.638  1.00  0.00    +0.262 C 
ATOM    118  O   ASP A  17     -28.908 -24.528 -29.679  1.00  0.00    -0.271 OA
ATOM    119  CB  ASP A  17     -28.056 -21.564 -28.913  1.00  0.00    +0.145 C 
ATOM    120  CG  ASP A  17     -27.358 -20.450 -28.148  1.00  0.00    +0.367 C 
ATOM    121  OD1 ASP A  17     -27.503 -20.378 -26.909  1.00  0.00    -0.246 OA
ATOM    122  OD2 ASP A  17     -26.658 -19.640 -28.794  1.00  0.00    -0.246 OA
ATOM    123  N   TRP A  18     -29.062 -24.273 -27.450  1.00  0.00    -0.196 N 
ATOM    124  CA  TRP A  18     -30.366 -24.918 -27.328  1.00  0.00    +0.177 C 
ATOM    125  C   TRP A  18     -31.330 -24.048 -26.537  1.00  0.00    +0.262 C 
ATOM    126  O   TRP A  18     -30.911 -23.120 -25.847  1.00  0.00    -0.271 OA
ATOM    127  CB  TRP A  18     -30.237 -26.275 -26.656  1.00  0.00    +0.059 C 
ATOM    128  CG  TRP A  18     -29.854 -26.206 -25.206  1.00  0.00    +0.000 C 
ATOM    129  CD1 TRP A  18     -28.599 -26.354 -24.678  1.00  0.00    +0.094 C 
ATOM    130  CD2 TRP A  18     -30.730 -25.973 -24.101  1.00  0.00    +0.011 C 
ATOM    131  NE1 TRP A  18     -28.683 -26.220 -23.306  1.00  0.00    -0.248 NA
ATOM    132  CE2 TRP A  18     -29.974 -25.986 -22.924  1.00  0.00    +0.063 C 
ATOM    133  CE3 TRP A  18     -32.107 -25.750 -23.987  1.00  0.00    +0.001 C 
ATOM    134  CZ2 TRP A  18     -30.598 -25.781 -21.687  1.00  0.00    +0.072 C 
ATOM    135  CZ3 TRP A  18     -32.681 -25.550 -22.725  1.00  0.00    -0.004 C 
ATOM    136  CH2 TRP A  18     -31.979 -25.563 -21.630  1.00  0.00    -0.020 C 
ATOM    137  N   ILE A  19     -32.622 -24.348 -26.637  1.00  0.00    -0.196 N 
ATOM    138  CA  ILE A  19     -33.656 -23.396 -26.241  1.00  0.00    +0.173 C 
ATOM    139  C   ILE A  19     -34.196 -23.767 -24.869  1.00  0.00    +0.262 C 
ATOM    140  O   ILE A  19     -34.647 -24.891 -24.657  1.00  0.00    -0.271 OA
ATOM    141  CB  ILE A  19     -34.799 -23.351 -27.241  1.00  0.00    +0.029 C 
ATOM    142  CG1 ILE A  19     -35.433 -24.731 -27.399  1.00  0.00    +0.002 C 
ATOM    143  CG2 ILE A  19     -34.300 -22.865 -28.600  1.00  0.00    +0.002 C 
ATOM    144  CD1 ILE A  19     -35.445 -25.245 -28.828  1.00  0.00    +0.000 C 
ATOM    145  N   ARG A  20     -34.151 -22.820 -23.935  1.00  0.00    -0.196 N 
ATOM    146  CA  ARG A  20     -35.195 -22.701 -22.921  1.00  0.00    +0.173 C 
ATOM    147  C   ARG A  20     -36.435 -22.036 -23.494  1.00  0.00    +0.262 C 
ATOM    148  O   ARG A  20     -37.152 -22.632 -24.297  1.00  0.00    -0.271 OA
ATOM    149  CB  ARG A  20     -34.701 -21.908 -21.723  1.00  0.00    +0.033 C 
ATOM    150  CG  ARG A  20     -34.546 -20.419 -21.994  1.00  0.00    +0.029 C 
ATOM    151  CD  ARG A  20     -34.344 -19.631 -20.711  1.00  0.00    +0.129 C 
ATOM    152  NE  ARG A  20     -33.017 -19.853 -20.144  1.00  0.00    -0.234 NA
ATOM    153  CZ  ARG A  20     -32.759 -19.987 -18.846  1.00  0.00    +0.284 C 
ATOM    154  NH1 ARG A  20     -33.724 -20.317 -17.994  1.00  0.00    -0.104 N 
ATOM    155  NH2 ARG A  20     -31.521 -19.791 -18.399  1.00  0.00    -0.104 N 
ATOM    156  N   ARG A  21     -36.692 -20.797 -23.082  1.00  0.00    -0.194 N 
ATOM    157  CA  ARG A  21     -37.923 -20.472 -22.366  1.00  0.00    +0.198 C 
ATOM    158  C   ARG A  21     -39.145 -20.859 -23.184  1.00  0.00    +0.384 C 
ATOM    159  O   ARG A  21     -40.204 -21.148 -22.627  1.00  0.00    -0.244 OA
ATOM    160  CB  ARG A  21     -37.983 -18.991 -22.035  1.00  0.00    +0.035 C 
ATOM    161  CG  ARG A  21     -37.146 -18.598 -20.827  1.00  0.00    +0.029 C 
ATOM    162  CD  ARG A  21     -37.821 -18.991 -19.522  1.00  0.00    +0.129 C 
ATOM    163  NE  ARG A  21     -38.100 -17.826 -18.687  1.00  0.00    -0.234 NA
ATOM    164  CZ  ARG A  21     -37.900 -17.768 -17.374  1.00  0.00    +0.284 C 
ATOM    165  NH1 ARG A  21     -37.295 -18.766 -16.736  1.00  0.00    -0.104 N 
ATOM    166  NH2 ARG A  21     -38.311 -16.702 -16.693  1.00  0.00    -0.104 N 
ATOM    167  OXT ARG A  21     -39.091 -20.890 -24.412  1.00  0.00    -0.244 OA
ATOM    168  H   MET A   1     -17.690 -15.141 -19.620  1.00  0.00    +0.000 HD
ATOM    169  H   MET A   1     -17.884 -16.743 -19.209  1.00  0.00    +0.000 HD
ATOM    170  H   LYS A   2     -13.624 -17.138 -20.293  1.00  0.00    +0.000 HD
ATOM    171  H   LYS A   2     -10.174 -18.739 -26.088  1.00  0.00    +0.000 HD
ATOM    172  H   LEU A   3     -15.290 -21.250 -20.827  1.00  0.00    +0.000 HD
ATOM    173  H   ALA A   4     -11.266 -23.471 -21.073  1.00  0.00    +0.000 HD
ATOM    174  H   PHE A   6      -7.754 -27.455 -25.375  1.00  0.00    +0.000 HD
ATOM    175  H   ALA A   7      -3.674 -24.853 -24.375  1.00  0.00    +0.000 HD
ATOM    176  H   LEU A   8      -5.161 -23.640 -26.518  1.00  0.00    +0.000 HD
ATOM    177  H   LEU A   9      -5.944 -19.643 -29.110  1.00  0.00    +0.000 HD
ATOM    178  H   VAL A  10      -9.173 -20.122 -25.830  1.00  0.00    +0.000 HD
ATOM    179  H   PHE A  12     -14.223 -17.553 -28.043  1.00  0.00    +0.000 HD
ATOM    180  H   ALA A  13     -16.050 -17.794 -28.949  1.00  0.00    +0.000 HD
ATOM    181  H   GLY A  14     -20.407 -16.294 -28.611  1.00  0.00    +0.000 HD
ATOM    182  H   ALA A  15     -23.392 -18.401 -31.303  1.00  0.00    +0.000 HD
ATOM    183  H   SER A  16     -25.124 -21.024 -27.902  1.00  0.00    +0.000 HD
ATOM    184  H   SER A  16     -26.199 -21.987 -26.718  1.00  0.00    +0.000 HD
ATOM    185  H   ASP A  17     -26.640 -23.072 -30.625  1.00  0.00    +0.000 HD
ATOM    186  H   ASP A  17     -28.036 -21.005 -26.462  1.00  0.00    +0.000 HD
ATOM    187  H   TRP A  18     -28.559 -24.047 -26.635  1.00  0.00    +0.000 HD
ATOM    188  H   ILE A  19     -32.887 -25.230 -26.985  1.00  0.00    +0.000 HD
ATOM    189  H   ARG A  20     -33.397 -22.187 -23.927  1.00  0.00    +0.000 HD
ATOM    190  H   ARG A  20     -33.522 -20.414 -17.035  1.00  0.00    +0.000 HD
ATOM    191  H   ARG A  20     -34.641 -20.464 -18.322  1.00  0.00    +0.000 HD
ATOM    192  H   ARG A  20     -31.324 -19.889 -17.440  1.00  0.00    +0.000 HD
ATOM    193  H   ARG A  20     -30.803 -19.548 -19.027  1.00  0.00    +0.000 HD
ATOM    194  H   ARG A  21     -36.038 -20.084 -23.264  1.00  0.00    +0.000 HD
ATOM    195  H   ARG A  21     -40.262 -21.129 -21.692  1.00  0.00    +0.000 HD
ATOM    196  H   ARG A  21     -37.152 -18.713 -15.764  1.00  0.00    +0.000 HD
ATOM    197  H   ARG A  21     -36.990 -19.557 -17.236  1.00  0.00    +0.000 HD
ATOM    198  H   ARG A  21     -38.166 -16.653 -15.721  1.00  0.00    +0.000 HD
ATOM    199  H   ARG A  21     -38.761 -15.962 -17.161  1.00  0.00    +0.000 HD
ENDROOT
TORSDOF 0
