REMARK  Name = /var/folders/yp/yjbh3p597675h2qddgqr02y00000gn/T/tmpopfq_4d1.pdb
REMARK     285 UNITARY VALUES FOR THE UNIT CELL AUTOMATICALLY SET
REMARK     285 BY MDANALYSIS PDBWRITER BECAUSE UNIT CELL INFORMATION
REMARK     285 WAS MISSING.
REMARK     285 PROTEIN DATA BANK CONVENTIONS REQUIRE THAT
REMARK     285 CRYST1 RECORD IS INCLUDED, BUT THE VALUES ON
REMARK     285 THIS RECORD ARE MEANINGLESS.
REMARK     285 UNITARY VALUES FOR THE UNIT CELL AUTOMATICALLY SET
REMARK     285 BY MDANALYSIS PDBWRITER BECAUSE UNIT CELL INFORMATION
REMARK     285 WAS MISSING.
REMARK     285 PROTEIN DATA BANK CONVENTIONS REQUIRE THAT
REMARK     285 CRYST1 RECORD IS INCLUDED, BUT THE VALUES ON
REMARK     285 THIS RECORD ARE MEANINGLESS.
REMARK                            x       y       z     vdW  Elec       q    Type
REMARK                         _______ _______ _______ _____ _____    ______ ____
ROOT
ATOM      1  N   MET A   1     -21.005  -9.135 -19.327  1.00  0.00    -0.123 NA
ATOM      2  CA  MET A   1     -21.341  -8.239 -20.430  1.00  0.00    +0.170 C 
ATOM      3  C   MET A   1     -20.171  -8.092 -21.388  1.00  0.00    +0.259 C 
ATOM      4  O   MET A   1     -19.060  -7.766 -20.973  1.00  0.00    -0.272 OA
ATOM      5  CB  MET A   1     -21.745  -6.869 -19.910  1.00  0.00    +0.040 C 
ATOM      6  CG  MET A   1     -22.236  -5.924 -20.996  1.00  0.00    +0.060 C 
ATOM      7  SD  MET A   1     -24.010  -6.088 -21.316  1.00  0.00    -0.139 S 
ATOM      8  CE  MET A   1     -24.482  -7.194 -19.991  1.00  0.00    +0.069 C 
ATOM      9  N   LYS A   2     -20.419  -8.332 -22.673  1.00  0.00    -0.197 N 
ATOM     10  CA  LYS A   2     -19.337  -8.457 -23.645  1.00  0.00    +0.173 C 
ATOM     11  C   LYS A   2     -18.764  -7.096 -24.004  1.00  0.00    +0.262 C 
ATOM     12  O   LYS A   2     -19.509  -6.132 -24.175  1.00  0.00    -0.271 OA
ATOM     13  CB  LYS A   2     -19.821  -9.154 -24.906  1.00  0.00    +0.031 C 
ATOM     14  CG  LYS A   2     -20.104 -10.635 -24.721  1.00  0.00    +0.009 C 
ATOM     15  CD  LYS A   2     -20.593 -11.281 -26.006  1.00  0.00    +0.049 C 
ATOM     16  CE  LYS A   2     -21.183 -12.594 -25.759  1.00  0.00    +0.096 C 
ATOM     17  NZ  LYS A   2     -22.209 -13.104 -26.436  1.00  0.00    -0.151 NA
ATOM     18  N   LEU A   3     -17.443  -7.016 -24.119  1.00  0.00    -0.196 N 
ATOM     19  CA  LEU A   3     -16.714  -5.818 -23.707  1.00  0.00    +0.173 C 
ATOM     20  C   LEU A   3     -16.969  -4.672 -24.673  1.00  0.00    +0.262 C 
ATOM     21  O   LEU A   3     -17.205  -4.896 -25.860  1.00  0.00    -0.271 OA
ATOM     22  CB  LEU A   3     -15.222  -6.095 -23.631  1.00  0.00    +0.031 C 
ATOM     23  CG  LEU A   3     -14.779  -7.107 -22.572  1.00  0.00    +0.002 C 
ATOM     24  CD1 LEU A   3     -13.430  -6.704 -21.988  1.00  0.00    +0.000 C 
ATOM     25  CD2 LEU A   3     -14.365  -8.420 -23.227  1.00  0.00    +0.000 C 
ATOM     26  N   ALA A   4     -16.921  -3.444 -24.166  1.00  0.00    -0.196 N 
ATOM     27  CA  ALA A   4     -15.848  -2.518 -24.514  1.00  0.00    +0.171 C 
ATOM     28  C   ALA A   4     -14.492  -3.078 -24.117  1.00  0.00    +0.246 C 
ATOM     29  O   ALA A   4     -14.414  -3.995 -23.299  1.00  0.00    -0.273 OA
ATOM     30  CB  ALA A   4     -16.057  -1.171 -23.841  1.00  0.00    +0.033 C 
ATOM     31  N   PRO A   5     -13.427  -2.529 -24.694  1.00  0.00    -0.272 N 
ATOM     32  CA  PRO A   5     -12.118  -2.545 -24.047  1.00  0.00    +0.154 C 
ATOM     33  C   PRO A   5     -11.370  -1.231 -24.203  1.00  0.00    +0.260 C 
ATOM     34  O   PRO A   5     -11.883  -0.286 -24.800  1.00  0.00    -0.272 OA
ATOM     35  CB  PRO A   5     -11.363  -3.648 -24.770  1.00  0.00    +0.031 C 
ATOM     36  CG  PRO A   5     -11.945  -3.652 -26.142  1.00  0.00    +0.024 C 
ATOM     37  CD  PRO A   5     -13.393  -3.312 -25.950  1.00  0.00    +0.094 C 
ATOM     38  N   PHE A   6     -10.154  -1.171 -23.667  1.00  0.00    -0.196 N 
ATOM     39  CA  PHE A   6      -9.258  -0.051 -23.939  1.00  0.00    +0.177 C 
ATOM     40  C   PHE A   6      -8.780  -0.083 -25.382  1.00  0.00    +0.262 C 
ATOM     41  O   PHE A   6      -8.375  -1.131 -25.883  1.00  0.00    -0.271 OA
ATOM     42  CB  PHE A   6      -8.058  -0.077 -23.006  1.00  0.00    +0.057 C 
ATOM     43  CG  PHE A   6      -7.672   1.272 -22.477  1.00  0.00    -0.020 A 
ATOM     44  CD1 PHE A   6      -8.405   1.850 -21.447  1.00  0.00    -0.004 A 
ATOM     45  CE1 PHE A   6      -8.047   3.100 -20.955  1.00  0.00    -0.000 A 
ATOM     46  CD2 PHE A   6      -6.583   1.946 -23.017  1.00  0.00    -0.004 A 
ATOM     47  CE2 PHE A   6      -6.225   3.195 -22.526  1.00  0.00    -0.000 A 
ATOM     48  CZ  PHE A   6      -6.957   3.773 -21.494  1.00  0.00    -0.000 A 
ATOM     49  N   ALA A   7      -8.824   1.066 -26.050  1.00  0.00    -0.196 N 
ATOM     50  CA  ALA A   7      -7.764   2.062 -25.920  1.00  0.00    +0.173 C 
ATOM     51  C   ALA A   7      -8.037   3.002 -24.756  1.00  0.00    +0.262 C 
ATOM     52  O   ALA A   7      -7.220   3.867 -24.448  1.00  0.00    -0.271 OA
ATOM     53  CB  ALA A   7      -7.623   2.870 -27.200  1.00  0.00    +0.033 C 
ATOM     54  N   LEU A   8      -9.186   2.829 -24.109  1.00  0.00    -0.196 N 
ATOM     55  CA  LEU A   8     -10.005   3.966 -23.699  1.00  0.00    +0.173 C 
ATOM     56  C   LEU A   8      -9.934   4.172 -22.195  1.00  0.00    +0.262 C 
ATOM     57  O   LEU A   8     -10.045   3.215 -21.428  1.00  0.00    -0.271 OA
ATOM     58  CB  LEU A   8     -11.454   3.764 -24.115  1.00  0.00    +0.031 C 
ATOM     59  CG  LEU A   8     -11.715   3.668 -25.620  1.00  0.00    +0.002 C 
ATOM     60  CD1 LEU A   8     -13.209   3.545 -25.890  1.00  0.00    +0.000 C 
ATOM     61  CD2 LEU A   8     -11.269   2.313 -26.156  1.00  0.00    +0.000 C 
ATOM     62  N   LEU A   9      -9.748   5.419 -21.772  1.00  0.00    -0.196 N 
ATOM     63  CA  LEU A   9     -10.134   5.831 -20.424  1.00  0.00    +0.173 C 
ATOM     64  C   LEU A   9     -11.639   5.998 -20.320  1.00  0.00    +0.262 C 
ATOM     65  O   LEU A   9     -12.245   6.721 -21.110  1.00  0.00    -0.271 OA
ATOM     66  CB  LEU A   9      -9.450   7.134 -20.044  1.00  0.00    +0.031 C 
ATOM     67  CG  LEU A   9      -9.283   7.396 -18.546  1.00  0.00    +0.002 C 
ATOM     68  CD1 LEU A   9      -9.650   8.837 -18.218  1.00  0.00    +0.000 C 
ATOM     69  CD2 LEU A   9      -7.805   7.441 -18.172  1.00  0.00    +0.000 C 
ATOM     70  N   VAL A  10     -12.249   5.331 -19.344  1.00  0.00    -0.196 N 
ATOM     71  CA  VAL A  10     -13.384   5.901 -18.626  1.00  0.00    +0.173 C 
ATOM     72  C   VAL A  10     -13.042   6.045 -17.153  1.00  0.00    +0.262 C 
ATOM     73  O   VAL A  10     -12.948   5.052 -16.433  1.00  0.00    -0.271 OA
ATOM     74  CB  VAL A  10     -14.635   5.049 -18.776  1.00  0.00    +0.029 C 
ATOM     75  CG1 VAL A  10     -15.884   5.928 -18.824  1.00  0.00    +0.002 C 
ATOM     76  CG2 VAL A  10     -14.577   4.244 -20.071  1.00  0.00    +0.002 C 
ATOM     77  N   VAL A  11     -12.855   7.282 -16.702  1.00  0.00    -0.196 N 
ATOM     78  CA  VAL A  11     -12.971   7.599 -15.281  1.00  0.00    +0.173 C 
ATOM     79  C   VAL A  11     -14.436   7.606 -14.874  1.00  0.00    +0.262 C 
ATOM     80  O   VAL A  11     -15.213   8.430 -15.352  1.00  0.00    -0.271 OA
ATOM     81  CB  VAL A  11     -12.344   8.942 -14.945  1.00  0.00    +0.029 C 
ATOM     82  CG1 VAL A  11     -11.949   9.000 -13.472  1.00  0.00    +0.002 C 
ATOM     83  CG2 VAL A  11     -11.086   9.165 -15.780  1.00  0.00    +0.002 C 
ATOM     84  N   PHE A  12     -14.813   6.688 -13.989  1.00  0.00    -0.196 N 
ATOM     85  CA  PHE A  12     -15.948   6.912 -13.097  1.00  0.00    +0.177 C 
ATOM     86  C   PHE A  12     -15.572   7.864 -11.974  1.00  0.00    +0.262 C 
ATOM     87  O   PHE A  12     -15.442   7.451 -10.822  1.00  0.00    -0.271 OA
ATOM     88  CB  PHE A  12     -16.440   5.600 -12.506  1.00  0.00    +0.057 C 
ATOM     89  CG  PHE A  12     -16.828   4.580 -13.535  1.00  0.00    -0.020 A 
ATOM     90  CD1 PHE A  12     -15.919   3.602 -13.922  1.00  0.00    -0.004 A 
ATOM     91  CE1 PHE A  12     -16.280   2.656 -14.875  1.00  0.00    -0.000 A 
ATOM     92  CD2 PHE A  12     -18.097   4.613 -14.101  1.00  0.00    -0.004 A 
ATOM     93  CE2 PHE A  12     -18.458   3.668 -15.055  1.00  0.00    -0.000 A 
ATOM     94  CZ  PHE A  12     -17.549   2.689 -15.441  1.00  0.00    -0.000 A 
ATOM     95  N   ALA A  13     -15.395   9.139 -12.308  1.00  0.00    -0.196 N 
ATOM     96  CA  ALA A  13     -15.709  10.219 -11.376  1.00  0.00    +0.173 C 
ATOM     97  C   ALA A  13     -17.201  10.284 -11.097  1.00  0.00    +0.262 C 
ATOM     98  O   ALA A  13     -17.855  11.273 -11.430  1.00  0.00    -0.271 OA
ATOM     99  CB  ALA A  13     -15.235  11.556 -11.921  1.00  0.00    +0.033 C 
ATOM    100  N   GLY A  14     -17.742   9.235 -10.487  1.00  0.00    -0.194 N 
ATOM    101  CA  GLY A  14     -18.263   9.329  -9.127  1.00  0.00    +0.201 C 
ATOM    102  C   GLY A  14     -19.665   9.919  -9.122  1.00  0.00    +0.264 C 
ATOM    103  O   GLY A  14     -20.422   9.734 -10.074  1.00  0.00    -0.271 OA
ATOM    104  N   ALA A  15     -20.010  10.627  -8.052  1.00  0.00    -0.196 N 
ATOM    105  CA  ALA A  15     -21.345  10.523  -7.469  1.00  0.00    +0.173 C 
ATOM    106  C   ALA A  15     -22.363  11.292  -8.294  1.00  0.00    +0.262 C 
ATOM    107  O   ALA A  15     -23.556  11.271  -7.994  1.00  0.00    -0.271 OA
ATOM    108  CB  ALA A  15     -21.352  11.043  -6.042  1.00  0.00    +0.033 C 
ATOM    109  N   SER A  16     -21.893  11.975  -9.334  1.00  0.00    -0.194 N 
ATOM    110  CA  SER A  16     -22.415  13.297  -9.673  1.00  0.00    +0.205 C 
ATOM    111  C   SER A  16     -23.876  13.224 -10.086  1.00  0.00    +0.264 C 
ATOM    112  O   SER A  16     -24.228  12.493 -11.010  1.00  0.00    -0.271 OA
ATOM    113  CB  SER A  16     -21.602  13.922 -10.796  1.00  0.00    +0.213 C 
ATOM    114  OG  SER A  16     -20.301  14.259 -10.346  1.00  0.00    -0.218 OA
ATOM    115  N   ASP A  17     -24.727  13.982  -9.401  1.00  0.00    -0.196 N 
ATOM    116  CA  ASP A  17     -25.787  14.732 -10.070  1.00  0.00    +0.184 C 
ATOM    117  C   ASP A  17     -25.435  16.207 -10.164  1.00  0.00    +0.262 C 
ATOM    118  O   ASP A  17     -24.713  16.732  -9.317  1.00  0.00    -0.271 OA
ATOM    119  CB  ASP A  17     -27.110  14.569  -9.340  1.00  0.00    +0.145 C 
ATOM    120  CG  ASP A  17     -27.529  13.117  -9.182  1.00  0.00    +0.367 C 
ATOM    121  OD1 ASP A  17     -26.724  12.212  -9.489  1.00  0.00    -0.246 OA
ATOM    122  OD2 ASP A  17     -28.677  12.877  -8.746  1.00  0.00    -0.246 OA
ATOM    123  N   TRP A  18     -25.946  16.878 -11.192  1.00  0.00    -0.196 N 
ATOM    124  CA  TRP A  18     -26.134  18.325 -11.138  1.00  0.00    +0.175 C 
ATOM    125  C   TRP A  18     -27.606  18.685 -11.250  1.00  0.00    +0.221 C 
ATOM    126  O   TRP A  18     -28.417  17.870 -11.685  1.00  0.00    -0.442 OA
ATOM    127  CB  TRP A  18     -25.357  19.012 -12.249  1.00  0.00    +0.056 C 
ATOM    128  CG  TRP A  18     -25.730  18.558 -13.629  1.00  0.00    -0.011 C 
ATOM    129  CD1 TRP A  18     -24.933  18.564 -14.743  1.00  0.00    +0.091 C 
ATOM    130  CD2 TRP A  18     -26.993  18.032 -14.042  1.00  0.00    +0.117 C 
ATOM    131  NE1 TRP A  18     -25.661  18.065 -15.805  1.00  0.00    -0.248 NA
ATOM    132  CE2 TRP A  18     -26.924  17.732 -15.408  1.00  0.00    +0.070 C 
ATOM    133  CE3 TRP A  18     -28.201  17.777 -13.382  1.00  0.00    +0.133 C 
ATOM    134  CZ2 TRP A  18     -28.038  17.197 -16.065  1.00  0.00    +0.016 C 
ATOM    135  CZ3 TRP A  18     -29.285  17.242 -14.086  1.00  0.00    +0.034 C 
ATOM    136  CH2 TRP A  18     -29.223  16.963 -15.356  1.00  0.00    +0.004 C 
ATOM    137  N   ILE A  19     -27.952  19.908 -10.857  1.00  0.00    -0.232 NA
ATOM    138  CA  ILE A  19     -29.252  20.477 -11.201  1.00  0.00    +0.185 C 
ATOM    139  C   ILE A  19     -29.074  21.563 -12.251  1.00  0.00    +0.264 C 
ATOM    140  O   ILE A  19     -28.596  22.654 -11.945  1.00  0.00    -0.271 OA
ATOM    141  CB  ILE A  19     -29.959  21.056  -9.986  1.00  0.00    +0.053 C 
ATOM    142  CG1 ILE A  19     -29.674  20.214  -8.744  1.00  0.00    +0.004 C 
ATOM    143  CG2 ILE A  19     -31.466  21.114 -10.224  1.00  0.00    +0.118 C 
ATOM    144  CD1 ILE A  19     -30.589  20.517  -7.570  1.00  0.00    +0.000 C 
ATOM    145  N   ARG A  20     -29.459  21.264 -13.488  1.00  0.00    -0.196 N 
ATOM    146  CA  ARG A  20     -29.704  22.307 -14.479  1.00  0.00    +0.173 C 
ATOM    147  C   ARG A  20     -31.109  22.870 -14.343  1.00  0.00    +0.263 C 
ATOM    148  O   ARG A  20     -31.300  24.084 -14.352  1.00  0.00    -0.271 OA
ATOM    149  CB  ARG A  20     -29.507  21.772 -15.889  1.00  0.00    +0.033 C 
ATOM    150  CG  ARG A  20     -30.364  20.558 -16.209  1.00  0.00    +0.022 C 
ATOM    151  CD  ARG A  20     -31.295  20.818 -17.382  1.00  0.00    +0.080 C 
ATOM    152  NE  ARG A  20     -32.696  20.687 -16.998  1.00  0.00    -0.302 NA
ATOM    153  CZ  ARG A  20     -33.729  20.971 -17.786  1.00  0.00    +0.246 C 
ATOM    154  NH1 ARG A  20     -34.752  20.128 -17.894  1.00  0.00    -0.110 N 
ATOM    155  NH2 ARG A  20     -33.740  22.111 -18.473  1.00  0.00    -0.110 NA
ATOM    156  N   ARG A  21     -32.096  21.987 -14.215  1.00  0.00    -0.177 N 
ATOM    157  CA  ARG A  21     -32.858  21.525 -15.371  1.00  0.00    +0.237 C 
ATOM    158  C   ARG A  21     -34.340  21.821 -15.200  1.00  0.00    +0.400 C 
ATOM    159  O   ARG A  21     -34.864  22.756 -15.803  1.00  0.00    -0.242 OA
ATOM    160  CB  ARG A  21     -32.662  20.034 -15.591  1.00  0.00    +0.110 C 
ATOM    161  CG  ARG A  21     -33.680  19.168 -14.867  1.00  0.00    +0.046 C 
ATOM    162  CD  ARG A  21     -33.272  18.899 -13.429  1.00  0.00    +0.117 C 
ATOM    163  NE  ARG A  21     -34.010  19.740 -12.491  1.00  0.00    -0.205 N 
ATOM    164  CZ  ARG A  21     -33.460  20.448 -11.510  1.00  0.00    +0.241 C 
ATOM    165  NH1 ARG A  21     -33.847  20.274 -10.248  1.00  0.00    -0.111 NA
ATOM    166  NH2 ARG A  21     -32.515  21.340 -11.791  1.00  0.00    -0.205 N 
ATOM    167  OXT ARG A  21     -35.032  21.128 -14.457  1.00  0.00    -0.242 OA
ATOM    168  H   MET A   1     -20.737 -10.046 -19.699  1.00  0.00    +0.000 HD
ATOM    169  H   MET A   1     -21.815  -9.241 -18.716  1.00  0.00    +0.000 HD
ATOM    170  H   LYS A   2     -21.351  -8.428 -22.975  1.00  0.00    +0.000 HD
ATOM    171  H   LYS A   2     -22.626 -12.585 -27.162  1.00  0.00    +0.000 HD
ATOM    172  H   LEU A   3     -16.944  -7.780 -24.489  1.00  0.00    +0.000 HD
ATOM    173  H   ALA A   4     -17.626  -3.153 -23.543  1.00  0.00    +0.000 HD
ATOM    174  H   PHE A   6      -9.853  -1.897 -23.074  1.00  0.00    +0.000 HD
ATOM    175  H   ALA A   7      -9.588   1.249 -26.644  1.00  0.00    +0.000 HD
ATOM    176  H   LEU A   8      -9.490   1.917 -23.901  1.00  0.00    +0.000 HD
ATOM    177  H   LEU A   9      -9.342   6.078 -22.380  1.00  0.00    +0.000 HD
ATOM    178  H   VAL A  10     -11.926   4.434 -19.099  1.00  0.00    +0.000 HD
ATOM    179  H   VAL A  11     -12.634   8.000 -17.340  1.00  0.00    +0.000 HD
ATOM    180  H   PHE A  12     -14.316   5.840 -13.933  1.00  0.00    +0.000 HD
ATOM    181  H   ALA A  13     -15.045   9.360 -13.201  1.00  0.00    +0.000 HD
ATOM    182  H   GLY A  14     -17.793   8.375 -10.964  1.00  0.00    +0.000 HD
ATOM    183  H   ALA A  15     -19.352  11.235  -7.644  1.00  0.00    +0.000 HD
ATOM    184  H   SER A  16     -21.180  11.582  -9.887  1.00  0.00    +0.000 HD
ATOM    185  H   SER A  16     -19.843  13.457 -10.049  1.00  0.00    +0.000 HD
ATOM    186  H   ASP A  17     -24.641  14.039  -8.422  1.00  0.00    +0.000 HD
ATOM    187  H   ASP A  17     -29.252  13.584  -8.527  1.00  0.00    +0.000 HD
ATOM    188  H   TRP A  18     -26.202  16.388 -12.007  1.00  0.00    +0.000 HD
ATOM    189  H   ARG A  20     -29.582  20.320 -13.740  1.00  0.00    +0.000 HD
ATOM    190  H   ARG A  20     -35.512  20.348 -18.481  1.00  0.00    +0.000 HD
ATOM    191  H   ARG A  20     -34.750  19.284 -17.388  1.00  0.00    +0.000 HD
ATOM    192  H   ARG A  20     -32.986  22.739 -18.397  1.00  0.00    +0.000 HD
ATOM    193  H   ARG A  21     -32.317  21.638 -13.322  1.00  0.00    +0.000 HD
ATOM    194  H   ARG A  21     -34.988  19.787 -12.594  1.00  0.00    +0.000 HD
ATOM    195  H   ARG A  21     -33.433  20.803  -9.528  1.00  0.00    +0.000 HD
ATOM    196  H   ARG A  21     -32.397  21.933 -12.569  1.00  0.00    +0.000 HD
ATOM    197  H   ARG A  21     -34.648  20.412 -13.991  1.00  0.00    +0.000 HD
ENDROOT
TORSDOF 0
