REMARK  Name = /var/folders/yp/yjbh3p597675h2qddgqr02y00000gn/T/tmp15fevl6a.pdb
REMARK     285 UNITARY VALUES FOR THE UNIT CELL AUTOMATICALLY SET
REMARK     285 BY MDANALYSIS PDBWRITER BECAUSE UNIT CELL INFORMATION
REMARK     285 WAS MISSING.
REMARK     285 PROTEIN DATA BANK CONVENTIONS REQUIRE THAT
REMARK     285 CRYST1 RECORD IS INCLUDED, BUT THE VALUES ON
REMARK     285 THIS RECORD ARE MEANINGLESS.
REMARK     285 UNITARY VALUES FOR THE UNIT CELL AUTOMATICALLY SET
REMARK     285 BY MDANALYSIS PDBWRITER BECAUSE UNIT CELL INFORMATION
REMARK     285 WAS MISSING.
REMARK     285 PROTEIN DATA BANK CONVENTIONS REQUIRE THAT
REMARK     285 CRYST1 RECORD IS INCLUDED, BUT THE VALUES ON
REMARK     285 THIS RECORD ARE MEANINGLESS.
REMARK                            x       y       z     vdW  Elec       q    Type
REMARK                         _______ _______ _______ _____ _____    ______ ____
REMARK  Name = /var/folders/yp/yjbh3p597675h2qddgqr02y00000gn/T/tmp15fevl6a.pdb
REMARK     285 UNITARY VALUES FOR THE UNIT CELL AUTOMATICALLY SET
REMARK     285 BY MDANALYSIS PDBWRITER BECAUSE UNIT CELL INFORMATION
REMARK     285 WAS MISSING.
REMARK     285 PROTEIN DATA BANK CONVENTIONS REQUIRE THAT
REMARK     285 CRYST1 RECORD IS INCLUDED, BUT THE VALUES ON
REMARK     285 THIS RECORD ARE MEANINGLESS.
REMARK     285 UNITARY VALUES FOR THE UNIT CELL AUTOMATICALLY SET
REMARK     285 BY MDANALYSIS PDBWRITER BECAUSE UNIT CELL INFORMATION
REMARK     285 WAS MISSING.
REMARK     285 PROTEIN DATA BANK CONVENTIONS REQUIRE THAT
REMARK     285 CRYST1 RECORD IS INCLUDED, BUT THE VALUES ON
REMARK     285 THIS RECORD ARE MEANINGLESS.
REMARK                            x       y       z     vdW  Elec       q    Type
REMARK                         _______ _______ _______ _____ _____    ______ ____
REMARK  Name = /var/folders/yp/yjbh3p597675h2qddgqr02y00000gn/T/tmp15fevl6a.pdb
REMARK     285 UNITARY VALUES FOR THE UNIT CELL AUTOMATICALLY SET
REMARK     285 BY MDANALYSIS PDBWRITER BECAUSE UNIT CELL INFORMATION
REMARK     285 WAS MISSING.
REMARK     285 PROTEIN DATA BANK CONVENTIONS REQUIRE THAT
REMARK     285 CRYST1 RECORD IS INCLUDED, BUT THE VALUES ON
REMARK     285 THIS RECORD ARE MEANINGLESS.
REMARK     285 UNITARY VALUES FOR THE UNIT CELL AUTOMATICALLY SET
REMARK     285 BY MDANALYSIS PDBWRITER BECAUSE UNIT CELL INFORMATION
REMARK     285 WAS MISSING.
REMARK     285 PROTEIN DATA BANK CONVENTIONS REQUIRE THAT
REMARK     285 CRYST1 RECORD IS INCLUDED, BUT THE VALUES ON
REMARK     285 THIS RECORD ARE MEANINGLESS.
REMARK                            x       y       z     vdW  Elec       q    Type
REMARK                         _______ _______ _______ _____ _____    ______ ____
REMARK  Name = /var/folders/yp/yjbh3p597675h2qddgqr02y00000gn/T/tmp15fevl6a.pdb
REMARK     285 UNITARY VALUES FOR THE UNIT CELL AUTOMATICALLY SET
REMARK     285 BY MDANALYSIS PDBWRITER BECAUSE UNIT CELL INFORMATION
REMARK     285 WAS MISSING.
REMARK     285 PROTEIN DATA BANK CONVENTIONS REQUIRE THAT
REMARK     285 CRYST1 RECORD IS INCLUDED, BUT THE VALUES ON
REMARK     285 THIS RECORD ARE MEANINGLESS.
REMARK     285 UNITARY VALUES FOR THE UNIT CELL AUTOMATICALLY SET
REMARK     285 BY MDANALYSIS PDBWRITER BECAUSE UNIT CELL INFORMATION
REMARK     285 WAS MISSING.
REMARK     285 PROTEIN DATA BANK CONVENTIONS REQUIRE THAT
REMARK     285 CRYST1 RECORD IS INCLUDED, BUT THE VALUES ON
REMARK     285 THIS RECORD ARE MEANINGLESS.
REMARK                            x       y       z     vdW  Elec       q    Type
REMARK                         _______ _______ _______ _____ _____    ______ ____
ROOT
ATOM      1  N   MET A   1     -37.095  -2.353  28.622  1.00  0.00    -0.123 NA
ATOM      2  CA  MET A   1     -36.241  -1.868  29.704  1.00  0.00    +0.170 C 
ATOM      3  C   MET A   1     -34.967  -1.248  29.154  1.00  0.00    +0.259 C 
ATOM      4  O   MET A   1     -34.440  -1.699  28.139  1.00  0.00    -0.272 OA
ATOM      5  CB  MET A   1     -35.885  -2.996  30.659  1.00  0.00    +0.040 C 
ATOM      6  CG  MET A   1     -37.095  -3.680  31.273  1.00  0.00    +0.060 C 
ATOM      7  SD  MET A   1     -36.651  -4.823  32.605  1.00  0.00    -0.139 S 
ATOM      8  CE  MET A   1     -37.033  -3.821  34.038  1.00  0.00    +0.069 C 
ATOM      9  N   LYS A   2     -34.472  -0.212  29.824  1.00  0.00    -0.197 N 
ATOM     10  CA  LYS A   2     -33.443   0.647  29.244  1.00  0.00    +0.175 C 
ATOM     11  C   LYS A   2     -32.214   0.709  30.136  1.00  0.00    +0.261 C 
ATOM     12  O   LYS A   2     -32.332   0.880  31.348  1.00  0.00    -0.271 OA
ATOM     13  CB  LYS A   2     -33.978   2.053  29.017  1.00  0.00    +0.055 C 
ATOM     14  CG  LYS A   2     -34.988   2.151  27.887  1.00  0.00    +0.117 C 
ATOM     15  CD  LYS A   2     -35.642   3.522  27.832  1.00  0.00    +0.116 C 
ATOM     16  CE  LYS A   2     -34.677   4.568  27.505  1.00  0.00    +0.205 C 
ATOM     17  NZ  LYS A   2     -34.936   5.629  26.747  1.00  0.00    -0.107 NA
ATOM     18  N   LEU A   3     -31.034   0.570  29.537  1.00  0.00    -0.199 N 
ATOM     19  CA  LEU A   3     -29.832   1.202  30.072  1.00  0.00    +0.164 C 
ATOM     20  C   LEU A   3     -29.798   2.682  29.725  1.00  0.00    +0.279 C 
ATOM     21  O   LEU A   3     -30.096   3.066  28.595  1.00  0.00    -0.320 OA
ATOM     22  CB  LEU A   3     -28.584   0.526  29.532  1.00  0.00    +0.028 C 
ATOM     23  CG  LEU A   3     -28.217  -0.816  30.169  1.00  0.00    +0.002 C 
ATOM     24  CD1 LEU A   3     -26.703  -0.992  30.195  1.00  0.00    +0.000 C 
ATOM     25  CD2 LEU A   3     -28.567  -1.968  29.232  1.00  0.00    +0.000 C 
ATOM     26  N   ALA A   4     -29.435   3.514  30.697  1.00  0.00    -0.137 NA
ATOM     27  CA  ALA A   4     -28.192   4.277  30.621  1.00  0.00    +0.228 C 
ATOM     28  C   ALA A   4     -26.983   3.358  30.681  1.00  0.00    +0.267 C 
ATOM     29  O   ALA A   4     -27.078   2.239  31.182  1.00  0.00    -0.271 OA
ATOM     30  CB  ALA A   4     -28.114   5.295  31.747  1.00  0.00    +0.058 C 
ATOM     31  N   PRO A   5     -25.849   3.832  30.173  1.00  0.00    -0.270 N 
ATOM     32  CA  PRO A   5     -25.145   4.950  30.795  1.00  0.00    +0.154 C 
ATOM     33  C   PRO A   5     -25.781   6.294  30.478  1.00  0.00    +0.260 C 
ATOM     34  O   PRO A   5     -26.670   6.381  29.634  1.00  0.00    -0.272 OA
ATOM     35  CB  PRO A   5     -23.753   4.891  30.188  1.00  0.00    +0.031 C 
ATOM     36  CG  PRO A   5     -23.967   4.304  28.836  1.00  0.00    +0.024 C 
ATOM     37  CD  PRO A   5     -25.086   3.321  29.012  1.00  0.00    +0.094 C 
ATOM     38  N   PHE A   6     -25.326   7.343  31.158  1.00  0.00    -0.196 N 
ATOM     39  CA  PHE A   6     -25.388   8.693  30.604  1.00  0.00    +0.177 C 
ATOM     40  C   PHE A   6     -24.055   9.085  29.987  1.00  0.00    +0.262 C 
ATOM     41  O   PHE A   6     -23.003   8.868  30.585  1.00  0.00    -0.271 OA
ATOM     42  CB  PHE A   6     -25.768   9.701  31.676  1.00  0.00    +0.057 C 
ATOM     43  CG  PHE A   6     -26.429   9.092  32.876  1.00  0.00    -0.020 A 
ATOM     44  CD1 PHE A   6     -27.692   8.524  32.760  1.00  0.00    -0.004 A 
ATOM     45  CE1 PHE A   6     -28.305   7.959  33.873  1.00  0.00    -0.000 A 
ATOM     46  CD2 PHE A   6     -25.779   9.094  34.105  1.00  0.00    -0.004 A 
ATOM     47  CE2 PHE A   6     -26.391   8.530  35.217  1.00  0.00    -0.000 A 
ATOM     48  CZ  PHE A   6     -27.654   7.962  35.101  1.00  0.00    -0.000 A 
ATOM     49  N   ALA A   7     -24.099   9.661  28.789  1.00  0.00    -0.204 N 
ATOM     50  CA  ALA A   7     -25.195   9.401  27.860  1.00  0.00    +0.115 C 
ATOM     51  C   ALA A   7     -24.963   8.115  27.084  1.00  0.00    +0.273 C 
ATOM     52  O   ALA A   7     -25.778   7.740  26.243  1.00  0.00    -0.228 OA
ATOM     53  CB  ALA A   7     -25.363  10.557  26.888  1.00  0.00    +0.025 C 
ATOM     54  N   LEU A   8     -23.853   7.441  27.365  1.00  0.00    -0.101 NA
ATOM     55  CA  LEU A   8     -22.894   7.083  26.323  1.00  0.00    +0.053 C 
ATOM     56  C   LEU A   8     -22.743   5.574  26.223  1.00  0.00    +0.193 C 
ATOM     57  O   LEU A   8     -22.621   4.890  27.237  1.00  0.00    -0.356 OA
ATOM     58  N   LEU A   9     -22.751   5.055  24.998  1.00  0.00    -0.157 NA
ATOM     59  CA  LEU A   9     -21.812   4.006  24.610  1.00  0.00    +0.051 C 
ATOM     60  C   LEU A   9     -20.864   4.500  23.529  1.00  0.00    +0.139 C 
ATOM     61  O   LEU A   9     -21.273   4.708  22.388  1.00  0.00    -0.377 OA
ATOM     62  CB  LEU A   9     -22.553   2.776  24.114  1.00  0.00    +0.004 C 
ATOM     63  CG  LEU A   9     -21.703   1.522  23.894  1.00  0.00    +0.016 C 
ATOM     64  CD1 LEU A   9     -20.672   1.768  22.800  1.00  0.00    +0.044 C 
ATOM     65  CD2 LEU A   9     -22.520   0.435  23.203  1.00  0.00    +0.016 C 
ATOM     66  N   VAL A  10     -19.597   4.685  23.886  1.00  0.00    -0.176 NA
ATOM     67  CA  VAL A  10     -18.502   4.457  22.948  1.00  0.00    +0.243 C 
ATOM     68  CB  VAL A  10     -17.287   5.312  23.273  1.00  0.00    +0.058 C 
ATOM     69  CG1 VAL A  10     -16.282   5.282  22.125  1.00  0.00    +0.005 C 
ATOM     70  CG2 VAL A  10     -17.706   6.765  23.495  1.00  0.00    +0.005 C 
ATOM     71  CA  ASP A  17     -20.272   1.731  22.041  1.00  0.00    +0.001 C 
ATOM     72  C   ASP A  17     -20.188   3.230  22.278  1.00  0.00    +0.258 C 
ATOM     73  O   ASP A  17     -19.097   3.796  22.309  1.00  0.00    -0.445 OA
ATOM     74  CB  ASP A  17     -20.734   1.041  23.314  1.00  0.00    +0.117 C 
ATOM     75  CG  ASP A  17     -19.607   0.340  24.055  1.00  0.00    +0.368 C 
ATOM     76  OD1 ASP A  17     -18.475   0.282  23.528  1.00  0.00    -0.245 OA
ATOM     77  OD2 ASP A  17     -19.855  -0.158  25.174  1.00  0.00    -0.245 OA
ATOM     78  N   TRP A  18     -21.339   3.874  22.444  1.00  0.00    -0.045 NA
ATOM     79  CA  TRP A  18     -21.410   5.126  23.194  1.00  0.00    +0.218 C 
ATOM     80  C   TRP A  18     -22.396   5.013  24.345  1.00  0.00    +0.228 C 
ATOM     81  O   TRP A  18     -23.343   4.231  24.283  1.00  0.00    -0.204 OA
ATOM     82  CB  TRP A  18     -21.814   6.277  22.287  1.00  0.00    +0.072 C 
ATOM     83  CG  TRP A  18     -23.185   6.136  21.694  1.00  0.00    -0.015 C 
ATOM     84  CD1 TRP A  18     -23.500   5.662  20.448  1.00  0.00    +0.148 C 
ATOM     85  CD2 TRP A  18     -24.425   6.473  22.320  1.00  0.00    +0.011 A 
ATOM     86  NE1 TRP A  18     -24.871   5.700  20.299  1.00  0.00    -0.266 NA
ATOM     87  CE2 TRP A  18     -25.465   6.191  21.426  1.00  0.00    +0.076 A 
ATOM     88  CE3 TRP A  18     -24.769   6.996  23.572  1.00  0.00    -0.003 A 
ATOM     89  CZ2 TRP A  18     -26.793   6.432  21.798  1.00  0.00    +0.018 A 
ATOM     90  CZ3 TRP A  18     -26.114   7.220  23.893  1.00  0.00    -0.022 A 
ATOM     91  CH2 TRP A  18     -27.081   6.957  23.063  1.00  0.00    -0.003 A 
ATOM     92  N   ILE A  19     -22.177   5.797  25.397  1.00  0.00    -0.124 NA
ATOM     93  CA  ILE A  19     -22.990   5.694  26.605  1.00  0.00    +0.151 C 
ATOM     94  C   ILE A  19     -23.891   6.911  26.723  1.00  0.00    +0.110 C 
ATOM     95  O   ILE A  19     -23.633   7.804  27.529  1.00  0.00    -0.116 OA
ATOM     96  CB  ILE A  19     -22.135   5.572  27.856  1.00  0.00    +0.115 C 
ATOM     97  CG1 ILE A  19     -21.097   4.464  27.695  1.00  0.00    +0.030 C 
ATOM     98  CG2 ILE A  19     -23.009   5.275  29.072  1.00  0.00    +0.031 C 
ATOM     99  CD1 ILE A  19     -20.413   4.064  28.992  1.00  0.00    +0.003 C 
ATOM    100  N   ARG A  20     -24.951   6.951  25.920  1.00  0.00    +0.043 NA
ATOM    101  CA  ARG A  20     -26.127   7.751  26.249  1.00  0.00    +0.091 C 
ATOM    102  C   ARG A  20     -26.786   7.249  27.523  1.00  0.00    +0.242 C 
ATOM    103  O   ARG A  20     -26.902   7.987  28.500  1.00  0.00    -0.273 OA
ATOM    104  CB  ARG A  20     -27.135   7.726  25.112  1.00  0.00    +0.033 C 
ATOM    105  CG  ARG A  20     -28.252   8.747  25.259  1.00  0.00    +0.031 C 
ATOM    106  CD  ARG A  20     -29.459   8.390  24.409  1.00  0.00    +0.129 C 
ATOM    107  NE  ARG A  20     -29.888   7.014  24.631  1.00  0.00    -0.234 NA
ATOM    108  CZ  ARG A  20     -30.576   6.283  23.758  1.00  0.00    +0.284 C 
ATOM    109  NH1 ARG A  20     -31.107   6.842  22.676  1.00  0.00    -0.104 N 
ATOM    110  NH2 ARG A  20     -30.733   4.980  23.972  1.00  0.00    -0.104 N 
ATOM    111  N   ARG A  21     -27.220   5.991  27.515  1.00  0.00    -0.202 N 
ATOM    112  CA  ARG A  21     -28.599   5.661  27.865  1.00  0.00    +0.154 C 
ATOM    113  C   ARG A  21     -28.656   4.862  29.158  1.00  0.00    +0.260 C 
ATOM    114  O   ARG A  21     -28.874   5.424  30.231  1.00  0.00    -0.310 OA
ATOM    115  CB  ARG A  21     -29.267   4.872  26.752  1.00  0.00    +0.059 C 
ATOM    116  CG  ARG A  21     -30.136   3.727  27.245  1.00  0.00    +0.145 C 
ATOM    117  CD  ARG A  21     -31.569   4.171  27.490  1.00  0.00    +0.158 C 
ATOM    118  NE  ARG A  21     -32.528   3.262  26.869  1.00  0.00    -0.240 NA
ATOM    119  CZ  ARG A  21     -33.843   3.292  27.071  1.00  0.00    +0.201 C 
ATOM    120  NH1 ARG A  21     -34.372   4.129  27.959  1.00  0.00    -0.263 N 
ATOM    121  NH2 ARG A  21     -34.633   2.478  26.378  1.00  0.00    -0.208 N 
ATOM    122  OXT ARG A  21     -28.483   3.644  29.147  1.00  0.00    -0.293 OA
ATOM    123  H   MET A   1     -37.320  -1.580  27.995  1.00  0.00    +0.000 HD
ATOM    124  H   MET A   1     -37.956  -2.735  29.013  1.00  0.00    +0.000 HD
ATOM    125  H   LYS A   2     -34.805  -0.020  30.730  1.00  0.00    +0.000 HD
ATOM    126  H   LYS A   2     -34.771   5.395  25.767  1.00  0.00    +0.000 HD
ATOM    127  H   LYS A   2     -34.327   6.400  27.020  1.00  0.00    +0.000 HD
ATOM    128  H   LEU A   3     -30.971   0.031  28.716  1.00  0.00    +0.000 HD
ATOM    129  H   ALA A   4     -30.188   4.197  30.786  1.00  0.00    +0.000 HD
ATOM    130  H   PHE A   6     -24.939   7.206  32.052  1.00  0.00    +0.000 HD
ATOM    131  H   ALA A   7     -23.377  10.275  28.523  1.00  0.00    +0.000 HD
ATOM    132  H   VAL A  10     -19.520   5.657  24.187  1.00  0.00    +0.000 HD
ATOM    133  H   ASP A  17     -20.717  -0.094  25.536  1.00  0.00    +0.000 HD
ATOM    134  H   TRP A  18     -23.343   3.661  25.068  1.00  0.00    +0.000 HD
ATOM    135  H   ILE A  19     -21.179   5.599  25.473  1.00  0.00    +0.000 HD
ATOM    136  H   ILE A  19     -24.010   8.050  28.389  1.00  0.00    +0.000 HD
ATOM    137  H   ARG A  20     -25.304   6.385  25.148  1.00  0.00    +0.000 HD
ATOM    138  H   ARG A  20     -24.729   6.347  26.712  1.00  0.00    +0.000 HD
ATOM    139  H   ARG A  20     -30.993   7.807  22.514  1.00  0.00    +0.000 HD
ATOM    140  H   ARG A  20     -31.614   6.293  22.036  1.00  0.00    +0.000 HD
ATOM    141  H   ARG A  20     -30.342   4.562  24.773  1.00  0.00    +0.000 HD
ATOM    142  H   ARG A  20     -31.241   4.433  23.331  1.00  0.00    +0.000 HD
ATOM    143  H   ARG A  21     -26.599   5.269  27.266  1.00  0.00    +0.000 HD
ATOM    144  H   ARG A  21     -34.865   2.224  25.456  1.00  0.00    +0.000 HD
ATOM      1  CB  LEU A   8     -21.539   7.713  26.599  1.00  0.00    +0.000 C 
ATOM      2  CG  LEU A   8     -21.534   9.224  26.833  1.00  0.00    +0.000 C 
ATOM      3  CD1 LEU A   8     -20.109   9.720  27.048  1.00  0.00    +0.000 C 
ATOM      4  CD2 LEU A   8     -22.105   9.557  28.205  1.00  0.00    +0.000 C 
ATOM      1  C   VAL A  10     -18.106   2.988  22.968  1.00  0.00    +0.303 C 
ATOM      2  O   VAL A  10     -17.547   2.503  23.950  1.00  0.00    -0.265 OA
ATOM      3  N   VAL A  11     -18.396   2.279  21.880  1.00  0.00    -0.257 N 
ATOM      4  CA  VAL A  11     -18.235   0.828  21.854  1.00  0.00    +0.050 C 
ATOM      5  C   VAL A  11     -16.785   0.477  21.561  1.00  0.00    +0.225 C 
ATOM      6  O   VAL A  11     -15.994   1.345  21.197  1.00  0.00    -0.275 OA
ATOM      7  CB  VAL A  11     -19.136   0.176  20.818  1.00  0.00    -0.023 C 
ATOM      8  CG1 VAL A  11     -20.606   0.376  21.178  1.00  0.00    +0.115 C 
ATOM      9  CG2 VAL A  11     -18.900   0.793  19.443  1.00  0.00    +0.034 C 
ATOM     10  N   PHE A  12     -16.437  -0.797  21.718  1.00  0.00    -0.199 N 
ATOM     11  CA  PHE A  12     -15.200  -1.323  21.148  1.00  0.00    +0.177 C 
ATOM     12  C   PHE A  12     -15.451  -1.914  19.770  1.00  0.00    +0.262 C 
ATOM     13  O   PHE A  12     -14.780  -1.554  18.804  1.00  0.00    -0.271 OA
ATOM     14  CB  PHE A  12     -14.594  -2.382  22.053  1.00  0.00    +0.057 C 
ATOM     15  CG  PHE A  12     -13.100  -2.478  21.961  1.00  0.00    -0.020 A 
ATOM     16  CD1 PHE A  12     -12.304  -1.831  22.898  1.00  0.00    -0.004 A 
ATOM     17  CE1 PHE A  12     -10.918  -1.919  22.814  1.00  0.00    -0.000 A 
ATOM     18  CD2 PHE A  12     -12.511  -3.211  20.937  1.00  0.00    -0.004 A 
ATOM     19  CE2 PHE A  12     -11.126  -3.300  20.853  1.00  0.00    -0.000 A 
ATOM     20  CZ  PHE A  12     -10.331  -2.653  21.791  1.00  0.00    -0.000 A 
ATOM     21  N   ALA A  13     -16.416  -2.823  19.679  1.00  0.00    -0.196 N 
ATOM     22  CA  ALA A  13     -16.182  -4.124  19.059  1.00  0.00    +0.173 C 
ATOM     23  C   ALA A  13     -15.895  -3.979  17.575  1.00  0.00    +0.262 C 
ATOM     24  O   ALA A  13     -15.080  -4.716  17.021  1.00  0.00    -0.271 OA
ATOM     25  CB  ALA A  13     -17.377  -5.041  19.260  1.00  0.00    +0.033 C 
ATOM     26  N   GLY A  14     -16.564  -3.028  16.927  1.00  0.00    -0.194 N 
ATOM     27  CA  GLY A  14     -18.013  -3.094  16.764  1.00  0.00    +0.201 C 
ATOM     28  C   GLY A  14     -18.721  -2.444  17.942  1.00  0.00    +0.264 C 
ATOM     29  O   GLY A  14     -18.317  -1.377  18.401  1.00  0.00    -0.271 OA
ATOM     30  N   ALA A  15     -19.778  -3.086  18.431  1.00  0.00    -0.196 N 
ATOM     31  CA  ALA A  15     -20.961  -2.363  18.887  1.00  0.00    +0.171 C 
ATOM     32  C   ALA A  15     -20.696  -1.658  20.207  1.00  0.00    +0.246 C 
ATOM     33  O   ALA A  15     -20.370  -2.301  21.205  1.00  0.00    -0.273 OA
ATOM     34  CB  ALA A  15     -22.143  -3.308  19.046  1.00  0.00    +0.033 C 
ATOM     35  N   SER A  16     -20.834  -0.335  20.215  1.00  0.00    -0.276 N 
ATOM     36  CA  SER A  16     -19.931   0.528  19.460  1.00  0.00    +0.094 C 
ATOM     37  C   SER A  16     -18.747   0.964  20.308  1.00  0.00    +0.105 C 
ATOM     38  O   SER A  16     -17.631   1.086  19.805  1.00  0.00    -0.245 OA
ATOM     39  N   ASP A  17     -18.989   1.198  21.594  1.00  0.00    +0.439 N 
ATOM     40  H   VAL A  11     -18.053   2.720  21.069  1.00  0.00    +0.000 HD
ATOM     41  H   PHE A  12     -17.026  -1.398  22.230  1.00  0.00    +0.000 HD
ATOM     42  H   ALA A  13     -17.309  -2.615  20.036  1.00  0.00    +0.000 HD
ATOM     43  H   GLY A  14     -16.071  -2.264  16.549  1.00  0.00    +0.000 HD
ATOM     44  H   ALA A  15     -19.762  -4.068  18.487  1.00  0.00    +0.000 HD
ATOM     45  H   SER A  16     -16.990   1.318  20.495  1.00  0.00    +0.000 HD
ATOM      1  CB  SER A  16     -20.667   1.756  18.948  1.00  0.00    +0.217 C 
ATOM      2  OG  SER A  16     -21.631   2.193  19.890  1.00  0.00    -0.217 OA
ATOM      3  H   SER A  16     -21.190   2.407  20.727  1.00  0.00    +0.000 HD
ENDROOT
TORSDOF 0
