REMARK  Name = /var/folders/yp/yjbh3p597675h2qddgqr02y00000gn/T/tmpmkl7350c.pdb
REMARK     285 UNITARY VALUES FOR THE UNIT CELL AUTOMATICALLY SET
REMARK     285 BY MDANALYSIS PDBWRITER BECAUSE UNIT CELL INFORMATION
REMARK     285 WAS MISSING.
REMARK     285 PROTEIN DATA BANK CONVENTIONS REQUIRE THAT
REMARK     285 CRYST1 RECORD IS INCLUDED, BUT THE VALUES ON
REMARK     285 THIS RECORD ARE MEANINGLESS.
REMARK     285 UNITARY VALUES FOR THE UNIT CELL AUTOMATICALLY SET
REMARK     285 BY MDANALYSIS PDBWRITER BECAUSE UNIT CELL INFORMATION
REMARK     285 WAS MISSING.
REMARK     285 PROTEIN DATA BANK CONVENTIONS REQUIRE THAT
REMARK     285 CRYST1 RECORD IS INCLUDED, BUT THE VALUES ON
REMARK     285 THIS RECORD ARE MEANINGLESS.
REMARK                            x       y       z     vdW  Elec       q    Type
REMARK                         _______ _______ _______ _____ _____    ______ ____
REMARK  Name = /var/folders/yp/yjbh3p597675h2qddgqr02y00000gn/T/tmpmkl7350c.pdb
REMARK     285 UNITARY VALUES FOR THE UNIT CELL AUTOMATICALLY SET
REMARK     285 BY MDANALYSIS PDBWRITER BECAUSE UNIT CELL INFORMATION
REMARK     285 WAS MISSING.
REMARK     285 PROTEIN DATA BANK CONVENTIONS REQUIRE THAT
REMARK     285 CRYST1 RECORD IS INCLUDED, BUT THE VALUES ON
REMARK     285 THIS RECORD ARE MEANINGLESS.
REMARK     285 UNITARY VALUES FOR THE UNIT CELL AUTOMATICALLY SET
REMARK     285 BY MDANALYSIS PDBWRITER BECAUSE UNIT CELL INFORMATION
REMARK     285 WAS MISSING.
REMARK     285 PROTEIN DATA BANK CONVENTIONS REQUIRE THAT
REMARK     285 CRYST1 RECORD IS INCLUDED, BUT THE VALUES ON
REMARK     285 THIS RECORD ARE MEANINGLESS.
REMARK                            x       y       z     vdW  Elec       q    Type
REMARK                         _______ _______ _______ _____ _____    ______ ____
ROOT
ATOM      1  N   MET A   1      18.527 -28.922  35.954  1.00  0.00    -0.131 NA
ATOM      2  CA  MET A   1      19.327 -30.079  35.562  1.00  0.00    +0.110 C 
ATOM      3  C   MET A   1      20.222 -29.746  34.379  1.00  0.00    +0.236 C 
ATOM      4  O   MET A   1      19.751 -29.235  33.364  1.00  0.00    -0.286 OA
ATOM      5  CB  MET A   1      18.436 -31.259  35.207  1.00  0.00    +0.032 C 
ATOM      6  CG  MET A   1      19.207 -32.516  34.839  1.00  0.00    +0.061 C 
ATOM      7  SD  MET A   1      21.000 -32.278  34.894  1.00  0.00    -0.116 S 
ATOM      8  CE  MET A   1      21.115 -30.545  34.462  1.00  0.00    +0.185 C 
ATOM      9  N   LYS A   2      21.513 -30.036  34.509  1.00  0.00    -0.193 NA
ATOM     10  CA  LYS A   2      22.443 -29.877  33.394  1.00  0.00    +0.152 C 
ATOM     11  C   LYS A   2      22.055 -30.770  32.226  1.00  0.00    +0.258 C 
ATOM     12  O   LYS A   2      21.964 -31.986  32.376  1.00  0.00    -0.272 OA
ATOM     13  CB  LYS A   2      23.865 -30.196  33.826  1.00  0.00    +0.027 C 
ATOM     14  CG  LYS A   2      24.888 -30.077  32.709  1.00  0.00    +0.008 C 
ATOM     15  CD  LYS A   2      26.231 -30.668  33.107  1.00  0.00    +0.049 C 
ATOM     16  CE  LYS A   2      26.235 -32.123  32.994  1.00  0.00    +0.096 C 
ATOM     17  NZ  LYS A   2      27.305 -32.859  32.707  1.00  0.00    -0.151 NA
ATOM     18  N   LEU A   3      21.828 -30.165  31.063  1.00  0.00    -0.197 N 
ATOM     19  CA  LEU A   3      22.337 -30.713  29.810  1.00  0.00    +0.173 C 
ATOM     20  C   LEU A   3      23.827 -30.448  29.669  1.00  0.00    +0.262 C 
ATOM     21  O   LEU A   3      24.283 -29.325  29.873  1.00  0.00    -0.271 OA
ATOM     22  CB  LEU A   3      21.600 -30.115  28.622  1.00  0.00    +0.031 C 
ATOM     23  CG  LEU A   3      20.137 -30.531  28.458  1.00  0.00    +0.002 C 
ATOM     24  CD1 LEU A   3      19.840 -30.850  26.997  1.00  0.00    +0.000 C 
ATOM     25  CD2 LEU A   3      19.215 -29.327  28.626  1.00  0.00    +0.000 C 
ATOM     26  N   ALA A   4      24.586 -31.483  29.319  1.00  0.00    -0.196 N 
ATOM     27  CA  ALA A   4      25.504 -31.405  28.186  1.00  0.00    +0.171 C 
ATOM     28  C   ALA A   4      24.759 -31.080  26.902  1.00  0.00    +0.246 C 
ATOM     29  O   ALA A   4      23.582 -31.408  26.766  1.00  0.00    -0.273 OA
ATOM     30  CB  ALA A   4      26.263 -32.710  28.016  1.00  0.00    +0.033 C 
ATOM     31  N   PRO A   5      25.445 -30.435  25.962  1.00  0.00    -0.272 N 
ATOM     32  CA  PRO A   5      25.088 -30.545  24.550  1.00  0.00    +0.155 C 
ATOM     33  C   PRO A   5      25.563 -31.846  23.923  1.00  0.00    +0.260 C 
ATOM     34  O   PRO A   5      26.551 -32.428  24.367  1.00  0.00    -0.272 OA
ATOM     35  CB  PRO A   5      25.806 -29.375  23.897  1.00  0.00    +0.052 C 
ATOM     36  CG  PRO A   5      27.015 -29.168  24.743  1.00  0.00    +0.025 C 
ATOM     37  CD  PRO A   5      26.570 -29.489  26.140  1.00  0.00    +0.094 C 
ATOM     38  N   PHE A   6      24.858 -32.302  22.891  1.00  0.00    -0.202 N 
ATOM     39  CA  PHE A   6      24.636 -31.485  21.702  1.00  0.00    +0.143 C 
ATOM     40  C   PHE A   6      23.637 -30.376  21.988  1.00  0.00    +0.246 C 
ATOM     41  O   PHE A   6      22.530 -30.638  22.452  1.00  0.00    -0.202 OA
ATOM     42  CB  PHE A   6      24.133 -32.337  20.548  1.00  0.00    +0.028 C 
ATOM     43  N   ALA A   7      24.030 -29.135  21.715  1.00  0.00    -0.182 NA
ATOM     44  CA  ALA A   7      24.794 -28.348  22.679  1.00  0.00    +0.134 C 
ATOM     45  C   ALA A   7      23.873 -27.668  23.679  1.00  0.00    +0.256 C 
ATOM     46  O   ALA A   7      24.330 -27.172  24.708  1.00  0.00    -0.272 OA
ATOM     47  CB  ALA A   7      25.638 -27.301  21.973  1.00  0.00    +0.027 C 
ATOM     48  N   LEU A   8      22.579 -27.643  23.379  1.00  0.00    -0.202 N 
ATOM     49  CA  LEU A   8      21.674 -28.702  23.819  1.00  0.00    +0.143 C 
ATOM     50  C   LEU A   8      21.630 -29.833  22.804  1.00  0.00    +0.246 C 
ATOM     51  O   LEU A   8      22.394 -29.836  21.841  1.00  0.00    -0.202 OA
ATOM     52  CB  LEU A   8      20.273 -28.159  24.037  1.00  0.00    +0.026 C 
ATOM     53  CG  LEU A   8      20.058 -27.339  25.310  1.00  0.00    +0.002 C 
ATOM     54  CD1 LEU A   8      18.680 -26.686  25.292  1.00  0.00    +0.000 C 
ATOM     55  CD2 LEU A   8      20.914 -26.077  25.287  1.00  0.00    +0.000 C 
ATOM     56  N   LEU A   9      20.734 -30.791  23.019  1.00  0.00    -0.188 NA
ATOM     57  CA  LEU A   9      20.871 -32.112  22.411  1.00  0.00    +0.091 C 
ATOM     58  CB  LEU A   9      19.836 -33.073  22.969  1.00  0.00    +0.019 C 
ATOM     59  CG  LEU A   9      20.177 -34.562  22.870  1.00  0.00    +0.001 C 
ATOM     60  CD1 LEU A   9      20.186 -35.194  24.256  1.00  0.00    +0.000 C 
ATOM     61  CD2 LEU A   9      21.649 -34.752  22.519  1.00  0.00    +0.000 C 
ATOM     62  H   MET A   1      19.144 -28.145  36.187  1.00  0.00    +0.000 HD
ATOM     63  H   MET A   1      17.959 -29.161  36.767  1.00  0.00    +0.000 HD
ATOM     64  H   LYS A   2      20.944 -29.192  34.570  1.00  0.00    +0.000 HD
ATOM     65  H   LYS A   2      28.174 -32.424  32.554  1.00  0.00    +0.000 HD
ATOM     66  H   LEU A   3      21.304 -29.331  31.047  1.00  0.00    +0.000 HD
ATOM     67  H   ALA A   4      24.528 -32.319  29.834  1.00  0.00    +0.000 HD
ATOM     68  H   PHE A   6      24.479 -33.210  22.931  1.00  0.00    +0.000 HD
ATOM     69  H   ALA A   7      23.184 -28.602  21.514  1.00  0.00    +0.000 HD
ATOM     70  H   LEU A   8      22.222 -26.895  22.849  1.00  0.00    +0.000 HD
ATOM     71  H   LEU A   9      19.836 -30.421  22.706  1.00  0.00    +0.000 HD
ATOM      1  CG  PHE A   6      22.830 -31.869  19.970  1.00  0.00    +0.005 C 
ATOM      2  CD1 PHE A   6      22.819 -30.871  19.002  1.00  0.00    +0.000 C 
ATOM      3  CE1 PHE A   6      21.612 -30.437  18.468  1.00  0.00    +0.003 C 
ATOM      4  CD2 PHE A   6      21.635 -32.430  20.404  1.00  0.00    +0.057 C 
ATOM      5  CE2 PHE A   6      20.428 -31.996  19.869  1.00  0.00    +0.120 C 
ATOM      6  CZ  PHE A   6      20.417 -30.999  18.900  1.00  0.00    +0.030 C 
ATOM      7  C   LEU A   9      20.727 -32.030  20.900  1.00  0.00    +0.142 C 
ATOM      8  O   LEU A   9      19.805 -31.391  20.394  1.00  0.00    -0.356 OA
ATOM      9  N   VAL A  10      21.636 -32.677  20.177  1.00  0.00    -0.123 NA
ATOM     10  CA  VAL A  10      21.349 -33.122  18.817  1.00  0.00    +0.169 C 
ATOM     11  C   VAL A  10      21.563 -34.624  18.711  1.00  0.00    +0.259 C 
ATOM     12  O   VAL A  10      22.658 -35.119  18.969  1.00  0.00    -0.272 OA
ATOM     13  CB  VAL A  10      22.219 -32.413  17.792  1.00  0.00    +0.027 C 
ATOM     14  CG1 VAL A  10      21.710 -32.675  16.377  1.00  0.00    +0.002 C 
ATOM     15  CG2 VAL A  10      22.198 -30.904  18.029  1.00  0.00    +0.002 C 
ATOM     16  N   VAL A  11      20.516 -35.350  18.331  1.00  0.00    -0.197 N 
ATOM     17  CA  VAL A  11      20.686 -36.650  17.690  1.00  0.00    +0.173 C 
ATOM     18  C   VAL A  11      20.184 -36.586  16.256  1.00  0.00    +0.262 C 
ATOM     19  O   VAL A  11      19.054 -36.168  16.007  1.00  0.00    -0.271 OA
ATOM     20  CB  VAL A  11      19.949 -37.751  18.436  1.00  0.00    +0.029 C 
ATOM     21  CG1 VAL A  11      20.318 -39.123  17.876  1.00  0.00    +0.002 C 
ATOM     22  CG2 VAL A  11      20.320 -37.731  19.917  1.00  0.00    +0.002 C 
ATOM     23  N   PHE A  12      21.023 -37.002  15.312  1.00  0.00    -0.196 N 
ATOM     24  CA  PHE A  12      20.665 -36.943  13.897  1.00  0.00    +0.177 C 
ATOM     25  C   PHE A  12      19.959 -38.217  13.467  1.00  0.00    +0.262 C 
ATOM     26  O   PHE A  12      20.234 -39.293  13.995  1.00  0.00    -0.271 OA
ATOM     27  CB  PHE A  12      21.899 -36.730  13.036  1.00  0.00    +0.057 C 
ATOM     28  CG  PHE A  12      22.451 -35.337  13.098  1.00  0.00    -0.020 A 
ATOM     29  CD1 PHE A  12      22.297 -34.479  12.016  1.00  0.00    -0.004 A 
ATOM     30  CE1 PHE A  12      22.808 -33.187  12.074  1.00  0.00    -0.000 A 
ATOM     31  CD2 PHE A  12      23.116 -34.904  14.240  1.00  0.00    -0.004 A 
ATOM     32  CE2 PHE A  12      23.628 -33.612  14.298  1.00  0.00    -0.000 A 
ATOM     33  CZ  PHE A  12      23.473 -32.755  13.215  1.00  0.00    -0.000 A 
ATOM     34  N   ALA A  13      19.047 -38.099  12.506  1.00  0.00    -0.196 N 
ATOM     35  CA  ALA A  13      19.380 -38.343  11.106  1.00  0.00    +0.173 C 
ATOM     36  C   ALA A  13      20.442 -37.371  10.619  1.00  0.00    +0.262 C 
ATOM     37  O   ALA A  13      21.054 -37.586   9.574  1.00  0.00    -0.271 OA
ATOM     38  CB  ALA A  13      18.144 -38.227  10.228  1.00  0.00    +0.033 C 
ATOM     39  N   GLY A  14      20.663 -36.300  11.375  1.00  0.00    -0.194 N 
ATOM     40  CA  GLY A  14      20.434 -34.950  10.868  1.00  0.00    +0.201 C 
ATOM     41  C   GLY A  14      19.001 -34.511  11.121  1.00  0.00    +0.264 C 
ATOM     42  O   GLY A  14      18.268 -35.168  11.860  1.00  0.00    -0.271 OA
ATOM     43  N   ALA A  15      18.600 -33.400  10.510  1.00  0.00    -0.196 N 
ATOM     44  CA  ALA A  15      17.263 -32.855  10.724  1.00  0.00    +0.173 C 
ATOM     45  C   ALA A  15      16.200 -33.765  10.132  1.00  0.00    +0.262 C 
ATOM     46  O   ALA A  15      16.500 -34.613   9.293  1.00  0.00    -0.271 OA
ATOM     47  CB  ALA A  15      17.142 -31.468  10.112  1.00  0.00    +0.033 C 
ATOM     48  N   SER A  16      14.955 -33.591  10.569  1.00  0.00    -0.194 N 
ATOM     49  CA  SER A  16      13.826 -34.262   9.932  1.00  0.00    +0.205 C 
ATOM     50  C   SER A  16      13.567 -33.706   8.540  1.00  0.00    +0.264 C 
ATOM     51  O   SER A  16      13.642 -32.496   8.328  1.00  0.00    -0.271 OA
ATOM     52  CB  SER A  16      12.571 -34.117  10.777  1.00  0.00    +0.213 C 
ATOM     53  OG  SER A  16      12.107 -32.778  10.763  1.00  0.00    -0.218 OA
ATOM     54  N   ASP A  17      13.262 -34.588   7.593  1.00  0.00    -0.196 N 
ATOM     55  CA  ASP A  17      13.002 -34.168   6.219  1.00  0.00    +0.184 C 
ATOM     56  C   ASP A  17      11.510 -34.017   5.967  1.00  0.00    +0.262 C 
ATOM     57  O   ASP A  17      10.963 -34.658   5.072  1.00  0.00    -0.271 OA
ATOM     58  CB  ASP A  17      13.588 -35.160   5.228  1.00  0.00    +0.145 C 
ATOM     59  CG  ASP A  17      15.013 -35.567   5.563  1.00  0.00    +0.367 C 
ATOM     60  OD1 ASP A  17      15.829 -34.691   5.921  1.00  0.00    -0.246 OA
ATOM     61  OD2 ASP A  17      15.321 -36.775   5.470  1.00  0.00    -0.246 OA
ATOM     62  N   TRP A  18      10.855 -33.171   6.755  1.00  0.00    -0.200 N 
ATOM     63  CA  TRP A  18       9.420 -32.945   6.600  1.00  0.00    +0.157 C 
ATOM     64  C   TRP A  18       9.131 -31.486   6.291  1.00  0.00    +0.262 C 
ATOM     65  O   TRP A  18       9.979 -30.622   6.505  1.00  0.00    -0.460 OA
ATOM     66  CB  TRP A  18       8.670 -33.357   7.857  1.00  0.00    +0.051 C 
ATOM     67  CG  TRP A  18       9.051 -32.577   9.081  1.00  0.00    -0.014 C 
ATOM     68  CD1 TRP A  18       9.167 -33.053  10.361  1.00  0.00    +0.148 C 
ATOM     69  CD2 TRP A  18       9.364 -31.184   9.142  1.00  0.00    +0.045 A 
ATOM     70  NE1 TRP A  18       9.536 -32.010  11.183  1.00  0.00    -0.266 NA
ATOM     71  CE2 TRP A  18       9.664 -30.854  10.469  1.00  0.00    +0.079 A 
ATOM     72  CE3 TRP A  18       9.422 -30.160   8.188  1.00  0.00    +0.141 A 
ATOM     73  CZ2 TRP A  18      10.009 -29.539  10.803  1.00  0.00    +0.019 A 
ATOM     74  CZ3 TRP A  18       9.773 -28.861   8.577  1.00  0.00    +0.037 A 
ATOM     75  CH2 TRP A  18      10.052 -28.553   9.810  1.00  0.00    +0.005 A 
ATOM     76  N   ILE A  19       7.931 -31.209   5.787  1.00  0.00    -0.171 NA
ATOM     77  CA  ILE A  19       7.742 -30.123   4.829  1.00  0.00    +0.154 C 
ATOM     78  C   ILE A  19       6.753 -29.113   5.388  1.00  0.00    +0.258 C 
ATOM     79  O   ILE A  19       5.602 -29.451   5.663  1.00  0.00    -0.272 OA
ATOM     80  CB  ILE A  19       7.243 -30.632   3.487  1.00  0.00    +0.025 C 
ATOM     81  CG1 ILE A  19       8.212 -31.659   2.904  1.00  0.00    +0.002 C 
ATOM     82  CG2 ILE A  19       7.080 -29.473   2.505  1.00  0.00    +0.002 C 
ATOM     83  CD1 ILE A  19       7.798 -32.198   1.545  1.00  0.00    +0.000 C 
ATOM     84  N   ARG A  20       7.200 -27.871   5.558  1.00  0.00    -0.197 N 
ATOM     85  CA  ARG A  20       6.337 -26.818   6.082  1.00  0.00    +0.173 C 
ATOM     86  C   ARG A  20       5.253 -26.453   5.080  1.00  0.00    +0.262 C 
ATOM     87  O   ARG A  20       4.192 -25.959   5.458  1.00  0.00    -0.271 OA
ATOM     88  CB  ARG A  20       7.143 -25.578   6.430  1.00  0.00    +0.033 C 
ATOM     89  CG  ARG A  20       6.344 -24.508   7.155  1.00  0.00    +0.029 C 
ATOM     90  CD  ARG A  20       5.573 -25.081   8.334  1.00  0.00    +0.129 C 
ATOM     91  NE  ARG A  20       4.724 -24.076   8.963  1.00  0.00    -0.234 NA
ATOM     92  CZ  ARG A  20       5.152 -23.137   9.804  1.00  0.00    +0.284 C 
ATOM     93  NH1 ARG A  20       6.451 -22.979  10.038  1.00  0.00    -0.104 N 
ATOM     94  NH2 ARG A  20       4.270 -22.351  10.415  1.00  0.00    -0.104 N 
ATOM     95  N   ARG A  21       5.520 -26.695   3.799  1.00  0.00    -0.194 N 
ATOM     96  CA  ARG A  21       4.917 -25.899   2.733  1.00  0.00    +0.198 C 
ATOM     97  C   ARG A  21       3.435 -26.207   2.596  1.00  0.00    +0.384 C 
ATOM     98  O   ARG A  21       2.640 -25.324   2.277  1.00  0.00    -0.244 OA
ATOM     99  CB  ARG A  21       5.613 -26.155   1.406  1.00  0.00    +0.035 C 
ATOM    100  CG  ARG A  21       6.975 -25.489   1.289  1.00  0.00    +0.029 C 
ATOM    101  CD  ARG A  21       7.555 -25.633  -0.109  1.00  0.00    +0.129 C 
ATOM    102  NE  ARG A  21       8.128 -24.380  -0.587  1.00  0.00    -0.234 NA
ATOM    103  CZ  ARG A  21       9.172 -24.287  -1.406  1.00  0.00    +0.284 C 
ATOM    104  NH1 ARG A  21       9.948 -23.206  -1.394  1.00  0.00    -0.104 N 
ATOM    105  NH2 ARG A  21       9.441 -25.283  -2.244  1.00  0.00    -0.104 N 
ATOM    106  OXT ARG A  21       3.011 -27.344   2.804  1.00  0.00    -0.244 OA
ATOM    107  H   VAL A  10      21.491 -31.670  20.242  1.00  0.00    +0.000 HD
ATOM    108  H   VAL A  10      22.604 -32.896  20.410  1.00  0.00    +0.000 HD
ATOM    109  H   VAL A  11      19.607 -35.002  18.485  1.00  0.00    +0.000 HD
ATOM    110  H   PHE A  12      21.903 -37.357  15.572  1.00  0.00    +0.000 HD
ATOM    111  H   ALA A  13      18.127 -37.842  12.744  1.00  0.00    +0.000 HD
ATOM    112  H   GLY A  14      20.988 -36.420  12.297  1.00  0.00    +0.000 HD
ATOM    113  H   ALA A  15      19.217 -32.936   9.899  1.00  0.00    +0.000 HD
ATOM    114  H   SER A  16      14.792 -32.998  11.337  1.00  0.00    +0.000 HD
ATOM    115  H   SER A  16      12.791 -32.195  11.131  1.00  0.00    +0.000 HD
ATOM    116  H   ASP A  17      13.209 -35.544   7.823  1.00  0.00    +0.000 HD
ATOM    117  H   ASP A  17      14.680 -37.402   5.198  1.00  0.00    +0.000 HD
ATOM    118  H   TRP A  18      11.346 -32.687   7.457  1.00  0.00    +0.000 HD
ATOM    119  H   ILE A  19       7.609 -32.060   5.326  1.00  0.00    +0.000 HD
ATOM    120  H   ARG A  20       8.132 -27.659   5.325  1.00  0.00    +0.000 HD
ATOM    121  H   ARG A  20       7.107 -23.560   9.587  1.00  0.00    +0.000 HD
ATOM    122  H   ARG A  20       6.757 -22.282  10.661  1.00  0.00    +0.000 HD
ATOM    123  H   ARG A  20       3.307 -22.464  10.243  1.00  0.00    +0.000 HD
ATOM    124  H   ARG A  20       4.580 -21.654  11.038  1.00  0.00    +0.000 HD
ATOM    125  H   ARG A  21       6.136 -27.426   3.565  1.00  0.00    +0.000 HD
ATOM    126  H   ARG A  21      10.719 -23.146  -2.004  1.00  0.00    +0.000 HD
ATOM    127  H   ARG A  21       9.753 -22.466  -0.774  1.00  0.00    +0.000 HD
ATOM    128  H   ARG A  21      10.212 -25.219  -2.853  1.00  0.00    +0.000 HD
ATOM    129  H   ARG A  21       8.870 -26.084  -2.257  1.00  0.00    +0.000 HD
ATOM    130  H   ARG A  21       3.603 -28.027   3.048  1.00  0.00    +0.000 HD
ENDROOT
TORSDOF 0
