REMARK  Name = /var/folders/yp/yjbh3p597675h2qddgqr02y00000gn/T/tmpq_t4flmu.pdb
REMARK     285 UNITARY VALUES FOR THE UNIT CELL AUTOMATICALLY SET
REMARK     285 BY MDANALYSIS PDBWRITER BECAUSE UNIT CELL INFORMATION
REMARK     285 WAS MISSING.
REMARK     285 PROTEIN DATA BANK CONVENTIONS REQUIRE THAT
REMARK     285 CRYST1 RECORD IS INCLUDED, BUT THE VALUES ON
REMARK     285 THIS RECORD ARE MEANINGLESS.
REMARK     285 UNITARY VALUES FOR THE UNIT CELL AUTOMATICALLY SET
REMARK     285 BY MDANALYSIS PDBWRITER BECAUSE UNIT CELL INFORMATION
REMARK     285 WAS MISSING.
REMARK     285 PROTEIN DATA BANK CONVENTIONS REQUIRE THAT
REMARK     285 CRYST1 RECORD IS INCLUDED, BUT THE VALUES ON
REMARK     285 THIS RECORD ARE MEANINGLESS.
REMARK                            x       y       z     vdW  Elec       q    Type
REMARK                         _______ _______ _______ _____ _____    ______ ____
ROOT
ATOM      1  N   MET A   1     -20.493  -6.978   0.142  1.00  0.00    -0.123 NA
ATOM      2  CA  MET A   1     -20.199  -5.601   0.530  1.00  0.00    +0.170 C 
ATOM      3  C   MET A   1     -19.267  -4.941  -0.473  1.00  0.00    +0.259 C 
ATOM      4  O   MET A   1     -18.311  -5.560  -0.939  1.00  0.00    -0.272 OA
ATOM      5  CB  MET A   1     -19.572  -5.550   1.914  1.00  0.00    +0.040 C 
ATOM      6  CG  MET A   1     -19.379  -4.139   2.445  1.00  0.00    +0.060 C 
ATOM      7  SD  MET A   1     -20.918  -3.188   2.479  1.00  0.00    -0.139 S 
ATOM      8  CE  MET A   1     -20.297  -1.572   2.929  1.00  0.00    +0.069 C 
ATOM      9  N   LYS A   2     -19.544  -3.684  -0.806  1.00  0.00    -0.197 N 
ATOM     10  CA  LYS A   2     -18.740  -2.964  -1.790  1.00  0.00    +0.173 C 
ATOM     11  C   LYS A   2     -18.003  -1.800  -1.147  1.00  0.00    +0.262 C 
ATOM     12  O   LYS A   2     -18.532  -1.146  -0.250  1.00  0.00    -0.271 OA
ATOM     13  CB  LYS A   2     -19.610  -2.448  -2.926  1.00  0.00    +0.031 C 
ATOM     14  CG  LYS A   2     -20.253  -3.546  -3.755  1.00  0.00    +0.009 C 
ATOM     15  CD  LYS A   2     -19.549  -3.735  -5.089  1.00  0.00    +0.049 C 
ATOM     16  CE  LYS A   2     -18.352  -4.560  -4.955  1.00  0.00    +0.096 C 
ATOM     17  NZ  LYS A   2     -17.366  -4.617  -5.847  1.00  0.00    -0.151 NA
ATOM     18  N   LEU A   3     -16.781  -1.542  -1.605  1.00  0.00    -0.196 N 
ATOM     19  CA  LEU A   3     -15.605  -1.682  -0.752  1.00  0.00    +0.173 C 
ATOM     20  C   LEU A   3     -15.060  -0.320  -0.352  1.00  0.00    +0.262 C 
ATOM     21  O   LEU A   3     -14.873   0.551  -1.200  1.00  0.00    -0.271 OA
ATOM     22  CB  LEU A   3     -14.518  -2.474  -1.459  1.00  0.00    +0.031 C 
ATOM     23  CG  LEU A   3     -14.914  -3.866  -1.954  1.00  0.00    +0.002 C 
ATOM     24  CD1 LEU A   3     -13.840  -4.884  -1.586  1.00  0.00    +0.000 C 
ATOM     25  CD2 LEU A   3     -14.799  -3.948  -3.473  1.00  0.00    +0.000 C 
ATOM     26  N   ALA A   4     -14.807  -0.135   0.940  1.00  0.00    -0.196 N 
ATOM     27  CA  ALA A   4     -13.956   0.960   1.400  1.00  0.00    +0.171 C 
ATOM     28  C   ALA A   4     -12.514   0.745   0.972  1.00  0.00    +0.246 C 
ATOM     29  O   ALA A   4     -12.084  -0.391   0.779  1.00  0.00    -0.273 OA
ATOM     30  CB  ALA A   4     -14.024   1.098   2.912  1.00  0.00    +0.033 C 
ATOM     31  N   PRO A   5     -11.766   1.836   0.826  1.00  0.00    -0.272 N 
ATOM     32  CA  PRO A   5     -12.134   3.099   1.461  1.00  0.00    +0.154 C 
ATOM     33  C   PRO A   5     -13.244   3.829   0.722  1.00  0.00    +0.260 C 
ATOM     34  O   PRO A   5     -13.600   3.457  -0.394  1.00  0.00    -0.272 OA
ATOM     35  CB  PRO A   5     -10.859   3.924   1.405  1.00  0.00    +0.031 C 
ATOM     36  CG  PRO A   5     -10.160   3.435   0.183  1.00  0.00    +0.024 C 
ATOM     37  CD  PRO A   5     -10.477   1.970   0.113  1.00  0.00    +0.094 C 
ATOM     38  N   PHE A   6     -13.791   4.869   1.344  1.00  0.00    -0.196 N 
ATOM     39  CA  PHE A   6     -13.772   6.204   0.753  1.00  0.00    +0.177 C 
ATOM     40  C   PHE A   6     -12.396   6.836   0.889  1.00  0.00    +0.262 C 
ATOM     41  O   PHE A   6     -11.957   7.570   0.006  1.00  0.00    -0.271 OA
ATOM     42  CB  PHE A   6     -14.809   7.100   1.411  1.00  0.00    +0.057 C 
ATOM     43  CG  PHE A   6     -15.124   6.728   2.828  1.00  0.00    -0.016 A 
ATOM     44  CD1 PHE A   6     -16.363   6.185   3.145  1.00  0.00    -0.004 A 
ATOM     45  CE1 PHE A   6     -16.655   5.839   4.460  1.00  0.00    +0.003 A 
ATOM     46  CD2 PHE A   6     -14.176   6.927   3.826  1.00  0.00    +0.061 A 
ATOM     47  CE2 PHE A   6     -14.468   6.582   5.140  1.00  0.00    +0.141 A 
ATOM     48  CZ  PHE A   6     -15.707   6.038   5.457  1.00  0.00    +0.037 A 
ATOM     49  N   ALA A   7     -11.716   6.550   1.994  1.00  0.00    -0.200 N 
ATOM     50  CA  ALA A   7     -12.356   5.901   3.135  1.00  0.00    +0.152 C 
ATOM     51  C   ALA A   7     -13.030   6.920   4.039  1.00  0.00    +0.234 C 
ATOM     52  O   ALA A   7     -13.549   6.568   5.096  1.00  0.00    -0.462 OA
ATOM     53  CB  ALA A   7     -11.344   5.102   3.939  1.00  0.00    +0.029 C 
ATOM     54  N   LEU A   8     -13.023   8.183   3.623  1.00  0.00    -0.171 NA
ATOM     55  CA  LEU A   8     -13.276   9.289   4.543  1.00  0.00    +0.154 C 
ATOM     56  C   LEU A   8     -14.761   9.414   4.843  1.00  0.00    +0.258 C 
ATOM     57  O   LEU A   8     -15.594   9.232   3.957  1.00  0.00    -0.272 OA
ATOM     58  CB  LEU A   8     -12.763  10.597   3.967  1.00  0.00    +0.027 C 
ATOM     59  CG  LEU A   8     -11.395  11.064   4.470  1.00  0.00    +0.002 C 
ATOM     60  CD1 LEU A   8     -10.655  11.815   3.370  1.00  0.00    +0.000 C 
ATOM     61  CD2 LEU A   8     -10.447   9.879   4.620  1.00  0.00    +0.000 C 
ATOM     62  N   LEU A   9     -15.092   9.725   6.093  1.00  0.00    -0.197 N 
ATOM     63  CA  LEU A   9     -16.475  10.009   6.465  1.00  0.00    +0.173 C 
ATOM     64  C   LEU A   9     -16.679  11.497   6.697  1.00  0.00    +0.262 C 
ATOM     65  O   LEU A   9     -15.847  12.152   7.321  1.00  0.00    -0.271 OA
ATOM     66  CB  LEU A   9     -16.866   9.241   7.717  1.00  0.00    +0.031 C 
ATOM     67  CG  LEU A   9     -18.193   8.480   7.653  1.00  0.00    +0.002 C 
ATOM     68  CD1 LEU A   9     -18.832   8.420   9.035  1.00  0.00    +0.000 C 
ATOM     69  CD2 LEU A   9     -17.947   6.990   7.445  1.00  0.00    +0.000 C 
ATOM     70  N   VAL A  10     -17.789  12.033   6.198  1.00  0.00    -0.196 N 
ATOM     71  CA  VAL A  10     -17.808  13.397   5.678  1.00  0.00    +0.173 C 
ATOM     72  C   VAL A  10     -17.465  14.375   6.790  1.00  0.00    +0.262 C 
ATOM     73  O   VAL A  10     -18.212  14.512   7.757  1.00  0.00    -0.271 OA
ATOM     74  CB  VAL A  10     -19.159  13.760   5.085  1.00  0.00    +0.029 C 
ATOM     75  CG1 VAL A  10     -19.187  15.227   4.660  1.00  0.00    +0.002 C 
ATOM     76  CG2 VAL A  10     -19.444  12.907   3.850  1.00  0.00    +0.002 C 
ATOM     77  N   VAL A  11     -16.330  15.057   6.655  1.00  0.00    -0.196 N 
ATOM     78  CA  VAL A  11     -15.174  14.785   7.504  1.00  0.00    +0.173 C 
ATOM     79  C   VAL A  11     -15.467  15.223   8.930  1.00  0.00    +0.262 C 
ATOM     80  O   VAL A  11     -15.596  14.390   9.825  1.00  0.00    -0.271 OA
ATOM     81  CB  VAL A  11     -13.923  15.490   7.003  1.00  0.00    +0.029 C 
ATOM     82  CG1 VAL A  11     -12.779  15.331   8.000  1.00  0.00    +0.002 C 
ATOM     83  CG2 VAL A  11     -13.475  14.895   5.671  1.00  0.00    +0.002 C 
ATOM     84  N   PHE A  12     -15.576  16.532   9.141  1.00  0.00    -0.196 N 
ATOM     85  CA  PHE A  12     -15.208  17.129  10.422  1.00  0.00    +0.177 C 
ATOM     86  C   PHE A  12     -16.442  17.379  11.273  1.00  0.00    +0.262 C 
ATOM     87  O   PHE A  12     -16.368  17.360  12.501  1.00  0.00    -0.271 OA
ATOM     88  CB  PHE A  12     -14.459  18.434  10.215  1.00  0.00    +0.057 C 
ATOM     89  CG  PHE A  12     -15.234  19.651  10.628  1.00  0.00    -0.020 A 
ATOM     90  CD1 PHE A  12     -15.958  20.367   9.683  1.00  0.00    -0.004 A 
ATOM     91  CE1 PHE A  12     -16.676  21.494  10.064  1.00  0.00    -0.000 A 
ATOM     92  CD2 PHE A  12     -15.229  20.061  11.956  1.00  0.00    -0.004 A 
ATOM     93  CE2 PHE A  12     -15.947  21.189  12.338  1.00  0.00    -0.000 A 
ATOM     94  CZ  PHE A  12     -16.671  21.905  11.392  1.00  0.00    -0.000 A 
ATOM     95  N   ALA A  13     -17.577  17.616  10.623  1.00  0.00    -0.196 N 
ATOM     96  CA  ALA A  13     -18.377  18.805  10.897  1.00  0.00    +0.173 C 
ATOM     97  C   ALA A  13     -19.042  18.715  12.261  1.00  0.00    +0.262 C 
ATOM     98  O   ALA A  13     -19.492  19.724  12.804  1.00  0.00    -0.271 OA
ATOM     99  CB  ALA A  13     -19.440  19.000   9.827  1.00  0.00    +0.033 C 
ATOM    100  N   GLY A  14     -19.104  17.509  12.817  1.00  0.00    -0.194 N 
ATOM    101  CA  GLY A  14     -18.728  17.293  14.211  1.00  0.00    +0.201 C 
ATOM    102  C   GLY A  14     -19.849  17.716  15.146  1.00  0.00    +0.264 C 
ATOM    103  O   GLY A  14     -20.686  18.541  14.786  1.00  0.00    -0.271 OA
ATOM    104  N   ALA A  15     -19.864  17.151  16.351  1.00  0.00    -0.196 N 
ATOM    105  CA  ALA A  15     -21.099  17.042  17.122  1.00  0.00    +0.173 C 
ATOM    106  C   ALA A  15     -21.600  18.411  17.551  1.00  0.00    +0.262 C 
ATOM    107  O   ALA A  15     -20.807  19.282  17.910  1.00  0.00    -0.271 OA
ATOM    108  CB  ALA A  15     -20.891  16.170  18.351  1.00  0.00    +0.033 C 
ATOM    109  N   SER A  16     -22.915  18.604  17.515  1.00  0.00    -0.194 N 
ATOM    110  CA  SER A  16     -23.496  19.927  17.726  1.00  0.00    +0.205 C 
ATOM    111  C   SER A  16     -23.153  20.466  19.105  1.00  0.00    +0.264 C 
ATOM    112  O   SER A  16     -23.047  21.676  19.294  1.00  0.00    -0.271 OA
ATOM    113  CB  SER A  16     -25.007  19.881  17.561  1.00  0.00    +0.213 C 
ATOM    114  OG  SER A  16     -25.361  19.827  16.189  1.00  0.00    -0.218 OA
ATOM    115  N   ASP A  17     -22.980  19.566  20.070  1.00  0.00    -0.196 N 
ATOM    116  CA  ASP A  17     -23.630  19.710  21.369  1.00  0.00    +0.184 C 
ATOM    117  C   ASP A  17     -22.895  20.715  22.241  1.00  0.00    +0.262 C 
ATOM    118  O   ASP A  17     -22.560  21.807  21.786  1.00  0.00    -0.271 OA
ATOM    119  CB  ASP A  17     -23.709  18.374  22.089  1.00  0.00    +0.145 C 
ATOM    120  CG  ASP A  17     -22.373  17.926  22.661  1.00  0.00    +0.367 C 
ATOM    121  OD1 ASP A  17     -21.447  18.758  22.768  1.00  0.00    -0.246 OA
ATOM    122  OD2 ASP A  17     -22.249  16.732  23.007  1.00  0.00    -0.246 OA
ATOM    123  N   TRP A  18     -22.645  20.347  23.494  1.00  0.00    -0.196 N 
ATOM    124  CA  TRP A  18     -23.130  21.129  24.627  1.00  0.00    +0.177 C 
ATOM    125  C   TRP A  18     -21.976  21.788  25.363  1.00  0.00    +0.262 C 
ATOM    126  O   TRP A  18     -20.888  21.223  25.457  1.00  0.00    -0.271 OA
ATOM    127  CB  TRP A  18     -23.914  20.253  25.592  1.00  0.00    +0.055 C 
ATOM    128  CG  TRP A  18     -25.122  19.603  24.986  1.00  0.00    -0.014 C 
ATOM    129  CD1 TRP A  18     -26.398  20.100  24.953  1.00  0.00    +0.091 C 
ATOM    130  CD2 TRP A  18     -25.168  18.335  24.326  1.00  0.00    +0.082 C 
ATOM    131  NE1 TRP A  18     -27.206  19.189  24.305  1.00  0.00    -0.248 NA
ATOM    132  CE2 TRP A  18     -26.484  18.100  23.909  1.00  0.00    +0.066 C 
ATOM    133  CE3 TRP A  18     -24.211  17.355  24.040  1.00  0.00    -0.016 C 
ATOM    134  CZ2 TRP A  18     -26.803  16.917  23.231  1.00  0.00    +0.015 C 
ATOM    135  CZ3 TRP A  18     -24.583  16.189  23.359  1.00  0.00    -0.004 C 
ATOM    136  CH2 TRP A  18     -25.805  15.970  22.971  1.00  0.00    +0.001 C 
ATOM    137  N   ILE A  19     -22.213  22.988  25.888  1.00  0.00    -0.196 N 
ATOM    138  CA  ILE A  19     -21.543  23.429  27.108  1.00  0.00    +0.173 C 
ATOM    139  C   ILE A  19     -22.577  23.725  28.183  1.00  0.00    +0.262 C 
ATOM    140  O   ILE A  19     -23.672  24.197  27.883  1.00  0.00    -0.271 OA
ATOM    141  CB  ILE A  19     -20.689  24.663  26.874  1.00  0.00    +0.029 C 
ATOM    142  CG1 ILE A  19     -21.338  25.580  25.838  1.00  0.00    +0.002 C 
ATOM    143  CG2 ILE A  19     -19.295  24.264  26.395  1.00  0.00    +0.002 C 
ATOM    144  CD1 ILE A  19     -20.543  26.842  25.546  1.00  0.00    +0.000 C 
ATOM    145  N   ARG A  20     -22.231  23.447  29.438  1.00  0.00    -0.196 N 
ATOM    146  CA  ARG A  20     -21.089  22.590  29.740  1.00  0.00    +0.173 C 
ATOM    147  C   ARG A  20     -21.343  21.163  29.282  1.00  0.00    +0.262 C 
ATOM    148  O   ARG A  20     -20.405  20.427  28.981  1.00  0.00    -0.271 OA
ATOM    149  CB  ARG A  20     -20.785  22.597  31.229  1.00  0.00    +0.033 C 
ATOM    150  CG  ARG A  20     -21.811  21.857  32.070  1.00  0.00    +0.029 C 
ATOM    151  CD  ARG A  20     -23.221  22.367  31.817  1.00  0.00    +0.128 C 
ATOM    152  NE  ARG A  20     -24.217  21.576  32.534  1.00  0.00    -0.241 NA
ATOM    153  CZ  ARG A  20     -25.141  20.814  31.953  1.00  0.00    +0.221 C 
ATOM    154  NH1 ARG A  20     -25.335  20.866  30.640  1.00  0.00    -0.261 N 
ATOM    155  NH2 ARG A  20     -25.876  19.993  32.697  1.00  0.00    -0.108 N 
ATOM    156  N   ARG A  21     -22.612  20.770  29.229  1.00  0.00    -0.194 N 
ATOM    157  CA  ARG A  21     -23.017  19.444  29.686  1.00  0.00    +0.199 C 
ATOM    158  C   ARG A  21     -23.123  18.475  28.519  1.00  0.00    +0.384 C 
ATOM    159  O   ARG A  21     -22.716  17.319  28.627  1.00  0.00    -0.244 OA
ATOM    160  CB  ARG A  21     -24.349  19.505  30.416  1.00  0.00    +0.055 C 
ATOM    161  CG  ARG A  21     -25.150  20.764  30.129  1.00  0.00    +0.097 C 
ATOM    162  CD  ARG A  21     -26.575  20.657  30.647  1.00  0.00    +0.213 C 
ATOM    163  NE  ARG A  21     -26.607  20.365  32.077  1.00  0.00    -0.163 N 
ATOM    164  CZ  ARG A  21     -27.427  20.943  32.951  1.00  0.00    +0.277 C 
ATOM    165  NH1 ARG A  21     -28.720  20.633  32.975  1.00  0.00    -0.106 N 
ATOM    166  NH2 ARG A  21     -26.946  21.837  33.810  1.00  0.00    -0.106 NA
ATOM    167  OXT ARG A  21     -23.614  18.835  27.451  1.00  0.00    -0.244 OA
ATOM    168  H   MET A   1     -21.119  -7.399   0.829  1.00  0.00    +0.000 HD
ATOM    169  H   MET A   1     -19.626  -7.512   0.101  1.00  0.00    +0.000 HD
ATOM    170  H   LYS A   2     -20.306  -3.228  -0.380  1.00  0.00    +0.000 HD
ATOM    171  H   LYS A   2     -17.414  -4.078  -6.669  1.00  0.00    +0.000 HD
ATOM    172  H   LEU A   3     -16.669  -1.251  -2.539  1.00  0.00    +0.000 HD
ATOM    173  H   ALA A   4     -15.202  -0.749   1.601  1.00  0.00    +0.000 HD
ATOM    174  H   PHE A   6     -14.217   4.737   2.222  1.00  0.00    +0.000 HD
ATOM    175  H   ALA A   7     -10.760   6.782   2.046  1.00  0.00    +0.000 HD
ATOM    176  H   LEU A   8     -12.101   8.349   3.219  1.00  0.00    +0.000 HD
ATOM    177  H   LEU A   9     -14.390   9.764   6.783  1.00  0.00    +0.000 HD
ATOM    178  H   VAL A  10     -18.615  11.498   6.178  1.00  0.00    +0.000 HD
ATOM    179  H   VAL A  11     -16.269  15.761   5.969  1.00  0.00    +0.000 HD
ATOM    180  H   PHE A  12     -15.913  17.110   8.418  1.00  0.00    +0.000 HD
ATOM    181  H   ALA A  13     -17.885  16.975   9.942  1.00  0.00    +0.000 HD
ATOM    182  H   GLY A  14     -19.411  16.745  12.277  1.00  0.00    +0.000 HD
ATOM    183  H   ALA A  15     -19.027  16.800  16.730  1.00  0.00    +0.000 HD
ATOM    184  H   SER A  16     -23.509  17.838  17.341  1.00  0.00    +0.000 HD
ATOM    185  H   SER A  16     -25.029  20.619  15.738  1.00  0.00    +0.000 HD
ATOM    186  H   ASP A  17     -22.401  18.788  19.905  1.00  0.00    +0.000 HD
ATOM    187  H   ASP A  17     -22.968  16.140  22.909  1.00  0.00    +0.000 HD
ATOM    188  H   TRP A  18     -22.122  19.530  23.660  1.00  0.00    +0.000 HD
ATOM    189  H   ILE A  19     -22.852  23.591  25.445  1.00  0.00    +0.000 HD
ATOM    190  H   ARG A  20     -22.757  23.827  30.178  1.00  0.00    +0.000 HD
ATOM    191  H   ARG A  20     -25.774  19.363  33.447  1.00  0.00    +0.000 HD
ATOM    192  H   ARG A  21     -23.293  21.385  28.875  1.00  0.00    +0.000 HD
ATOM    193  H   ARG A  21     -22.339  17.028  29.434  1.00  0.00    +0.000 HD
ATOM    194  H   ARG A  21     -29.319  21.067  33.626  1.00  0.00    +0.000 HD
ATOM    195  H   ARG A  21     -29.080  19.970  32.341  1.00  0.00    +0.000 HD
ATOM    196  H   ARG A  21     -27.547  22.268  34.460  1.00  0.00    +0.000 HD
ENDROOT
TORSDOF 0
