REMARK  Name = /var/folders/yp/yjbh3p597675h2qddgqr02y00000gn/T/tmp83u9cpkk.pdb
REMARK     285 UNITARY VALUES FOR THE UNIT CELL AUTOMATICALLY SET
REMARK     285 BY MDANALYSIS PDBWRITER BECAUSE UNIT CELL INFORMATION
REMARK     285 WAS MISSING.
REMARK     285 PROTEIN DATA BANK CONVENTIONS REQUIRE THAT
REMARK     285 CRYST1 RECORD IS INCLUDED, BUT THE VALUES ON
REMARK     285 THIS RECORD ARE MEANINGLESS.
REMARK     285 UNITARY VALUES FOR THE UNIT CELL AUTOMATICALLY SET
REMARK     285 BY MDANALYSIS PDBWRITER BECAUSE UNIT CELL INFORMATION
REMARK     285 WAS MISSING.
REMARK     285 PROTEIN DATA BANK CONVENTIONS REQUIRE THAT
REMARK     285 CRYST1 RECORD IS INCLUDED, BUT THE VALUES ON
REMARK     285 THIS RECORD ARE MEANINGLESS.
REMARK                            x       y       z     vdW  Elec       q    Type
REMARK                         _______ _______ _______ _____ _____    ______ ____
ROOT
ATOM      1  N   MET A   1      11.060  -2.044  30.077  1.00  0.00    -0.123 NA
ATOM      2  CA  MET A   1      11.565  -3.395  29.846  1.00  0.00    +0.170 C 
ATOM      3  C   MET A   1      12.874  -3.361  29.074  1.00  0.00    +0.259 C 
ATOM      4  O   MET A   1      13.077  -2.492  28.226  1.00  0.00    -0.272 OA
ATOM      5  CB  MET A   1      10.550  -4.230  29.084  1.00  0.00    +0.040 C 
ATOM      6  CG  MET A   1       9.156  -4.198  29.690  1.00  0.00    +0.060 C 
ATOM      7  SD  MET A   1       9.058  -3.147  31.161  1.00  0.00    -0.139 S 
ATOM      8  CE  MET A   1      10.734  -3.282  31.773  1.00  0.00    +0.069 C 
ATOM      9  N   LYS A   2      13.764  -4.305  29.365  1.00  0.00    -0.197 N 
ATOM     10  CA  LYS A   2      13.688  -5.062  30.612  1.00  0.00    +0.173 C 
ATOM     11  C   LYS A   2      14.821  -4.681  31.551  1.00  0.00    +0.262 C 
ATOM     12  O   LYS A   2      15.989  -4.718  31.167  1.00  0.00    -0.271 OA
ATOM     13  CB  LYS A   2      13.734  -6.556  30.341  1.00  0.00    +0.031 C 
ATOM     14  CG  LYS A   2      12.873  -7.378  31.287  1.00  0.00    +0.009 C 
ATOM     15  CD  LYS A   2      12.925  -8.860  30.952  1.00  0.00    +0.049 C 
ATOM     16  CE  LYS A   2      14.162  -9.213  30.259  1.00  0.00    +0.096 C 
ATOM     17  NZ  LYS A   2      14.400  -8.985  28.970  1.00  0.00    -0.151 NA
ATOM     18  N   LEU A   3      14.479  -4.314  32.782  1.00  0.00    -0.196 N 
ATOM     19  CA  LEU A   3      14.348  -5.292  33.858  1.00  0.00    +0.171 C 
ATOM     20  C   LEU A   3      13.136  -6.181  33.638  1.00  0.00    +0.246 C 
ATOM     21  O   LEU A   3      12.118  -5.730  33.114  1.00  0.00    -0.273 OA
ATOM     22  CB  LEU A   3      14.230  -4.598  35.206  1.00  0.00    +0.031 C 
ATOM     23  CG  LEU A   3      15.525  -4.461  36.008  1.00  0.00    +0.002 C 
ATOM     24  CD1 LEU A   3      15.218  -4.031  37.437  1.00  0.00    +0.000 C 
ATOM     25  CD2 LEU A   3      16.309  -3.233  35.559  1.00  0.00    +0.000 C 
ATOM     26  N   ALA A   4      13.241  -7.444  34.036  1.00  0.00    -0.272 N 
ATOM     27  CA  ALA A   4      12.062  -8.244  34.355  1.00  0.00    +0.152 C 
ATOM     28  C   ALA A   4      11.275  -7.626  35.497  1.00  0.00    +0.244 C 
ATOM     29  O   ALA A   4      11.855  -6.998  36.382  1.00  0.00    -0.273 OA
ATOM     30  CB  ALA A   4      12.455  -9.666  34.720  1.00  0.00    +0.031 C 
ATOM     31  N   PRO A   5       9.958  -7.801  35.478  1.00  0.00    -0.272 N 
ATOM     32  CA  PRO A   5       9.232  -8.243  36.665  1.00  0.00    +0.154 C 
ATOM     33  C   PRO A   5       9.748  -9.563  37.212  1.00  0.00    +0.260 C 
ATOM     34  O   PRO A   5      10.445 -10.299  36.515  1.00  0.00    -0.272 OA
ATOM     35  CB  PRO A   5       7.802  -8.420  36.178  1.00  0.00    +0.031 C 
ATOM     36  CG  PRO A   5       7.947  -8.786  34.741  1.00  0.00    +0.024 C 
ATOM     37  CD  PRO A   5       9.140  -8.013  34.262  1.00  0.00    +0.094 C 
ATOM     38  N   PHE A   6       9.408  -9.863  38.463  1.00  0.00    -0.196 N 
ATOM     39  CA  PHE A   6       9.624 -11.201  39.009  1.00  0.00    +0.177 C 
ATOM     40  C   PHE A   6       8.628 -12.189  38.421  1.00  0.00    +0.262 C 
ATOM     41  O   PHE A   6       7.418 -11.991  38.526  1.00  0.00    -0.271 OA
ATOM     42  CB  PHE A   6       9.499 -11.195  40.523  1.00  0.00    +0.057 C 
ATOM     43  CG  PHE A   6       9.505 -12.563  41.137  1.00  0.00    -0.020 A 
ATOM     44  CD1 PHE A   6      10.695 -13.116  41.595  1.00  0.00    -0.004 A 
ATOM     45  CE1 PHE A   6      10.699 -14.385  42.165  1.00  0.00    -0.000 A 
ATOM     46  CD2 PHE A   6       8.318 -13.280  41.248  1.00  0.00    -0.004 A 
ATOM     47  CE2 PHE A   6       8.322 -14.547  41.818  1.00  0.00    -0.000 A 
ATOM     48  CZ  PHE A   6       9.513 -15.099  42.276  1.00  0.00    -0.000 A 
ATOM     49  N   ALA A   7       9.135 -13.250  37.801  1.00  0.00    -0.196 N 
ATOM     50  CA  ALA A   7      10.568 -13.364  37.543  1.00  0.00    +0.173 C 
ATOM     51  C   ALA A   7      11.009 -12.392  36.460  1.00  0.00    +0.262 C 
ATOM     52  O   ALA A   7      10.257 -12.118  35.526  1.00  0.00    -0.271 OA
ATOM     53  CB  ALA A   7      10.929 -14.782  37.129  1.00  0.00    +0.033 C 
ATOM     54  N   LEU A   8      12.226 -11.873  36.583  1.00  0.00    -0.196 N 
ATOM     55  CA  LEU A   8      13.043 -11.565  35.414  1.00  0.00    +0.173 C 
ATOM     56  C   LEU A   8      13.761 -12.807  34.912  1.00  0.00    +0.262 C 
ATOM     57  O   LEU A   8      14.295 -13.583  35.705  1.00  0.00    -0.271 OA
ATOM     58  CB  LEU A   8      14.062 -10.486  35.739  1.00  0.00    +0.033 C 
ATOM     59  CG  LEU A   8      13.662  -9.052  35.387  1.00  0.00    +0.023 C 
ATOM     60  CD1 LEU A   8      14.426  -8.576  34.156  1.00  0.00    +0.094 C 
ATOM     61  CD2 LEU A   8      14.229  -8.070  36.406  1.00  0.00    +0.002 C 
ATOM     62  N   LEU A   9      13.776 -12.997  33.595  1.00  0.00    -0.196 N 
ATOM     63  CA  LEU A   9      13.364 -14.266  33.007  1.00  0.00    +0.173 C 
ATOM     64  C   LEU A   9      14.261 -15.399  33.479  1.00  0.00    +0.262 C 
ATOM     65  O   LEU A   9      15.484 -15.273  33.474  1.00  0.00    -0.271 OA
ATOM     66  CB  LEU A   9      13.396 -14.192  31.488  1.00  0.00    +0.031 C 
ATOM     67  CG  LEU A   9      12.478 -15.165  30.747  1.00  0.00    +0.002 C 
ATOM     68  CD1 LEU A   9      11.881 -14.494  29.515  1.00  0.00    +0.000 C 
ATOM     69  CD2 LEU A   9      11.192 -15.394  31.534  1.00  0.00    +0.000 C 
ATOM     70  N   VAL A  10      13.653 -16.509  33.889  1.00  0.00    -0.196 N 
ATOM     71  CA  VAL A  10      14.196 -17.830  33.587  1.00  0.00    +0.173 C 
ATOM     72  C   VAL A  10      13.954 -18.162  32.123  1.00  0.00    +0.262 C 
ATOM     73  O   VAL A  10      14.892 -18.458  31.385  1.00  0.00    -0.271 OA
ATOM     74  CB  VAL A  10      13.580 -18.910  34.460  1.00  0.00    +0.029 C 
ATOM     75  CG1 VAL A  10      14.295 -20.244  34.254  1.00  0.00    +0.002 C 
ATOM     76  CG2 VAL A  10      13.703 -18.534  35.936  1.00  0.00    +0.002 C 
ATOM     77  N   VAL A  11      12.694 -18.115  31.702  1.00  0.00    -0.196 N 
ATOM     78  CA  VAL A  11      11.991 -19.320  31.269  1.00  0.00    +0.173 C 
ATOM     79  C   VAL A  11      12.649 -19.877  30.018  1.00  0.00    +0.262 C 
ATOM     80  O   VAL A  11      12.174 -19.646  28.907  1.00  0.00    -0.271 OA
ATOM     81  CB  VAL A  11      10.520 -19.051  30.993  1.00  0.00    +0.029 C 
ATOM     82  CG1 VAL A  11       9.646 -20.127  31.631  1.00  0.00    +0.002 C 
ATOM     83  CG2 VAL A  11      10.108 -17.701  31.576  1.00  0.00    +0.002 C 
ATOM     84  N   PHE A  12      13.744 -20.611  30.196  1.00  0.00    -0.196 N 
ATOM     85  CA  PHE A  12      14.193 -21.565  29.185  1.00  0.00    +0.177 C 
ATOM     86  C   PHE A  12      13.473 -22.894  29.344  1.00  0.00    +0.262 C 
ATOM     87  O   PHE A  12      12.897 -23.410  28.387  1.00  0.00    -0.271 OA
ATOM     88  CB  PHE A  12      15.693 -21.788  29.279  1.00  0.00    +0.057 C 
ATOM     89  CG  PHE A  12      16.508 -20.572  28.947  1.00  0.00    -0.020 A 
ATOM     90  CD1 PHE A  12      17.745 -20.378  29.551  1.00  0.00    -0.004 A 
ATOM     91  CE1 PHE A  12      18.501 -19.253  29.244  1.00  0.00    -0.000 A 
ATOM     92  CD2 PHE A  12      16.026 -19.639  28.035  1.00  0.00    -0.004 A 
ATOM     93  CE2 PHE A  12      16.782 -18.513  27.729  1.00  0.00    -0.000 A 
ATOM     94  CZ  PHE A  12      18.019 -18.320  28.334  1.00  0.00    -0.000 A 
ATOM     95  N   ALA A  13      13.504 -23.450  30.552  1.00  0.00    -0.196 N 
ATOM     96  CA  ALA A  13      13.960 -24.823  30.747  1.00  0.00    +0.173 C 
ATOM     97  C   ALA A  13      13.050 -25.807  30.031  1.00  0.00    +0.262 C 
ATOM     98  O   ALA A  13      13.454 -26.933  29.740  1.00  0.00    -0.271 OA
ATOM     99  CB  ALA A  13      14.021 -25.168  32.225  1.00  0.00    +0.033 C 
ATOM    100  N   GLY A  14      11.821 -25.387  29.748  1.00  0.00    -0.194 N 
ATOM    101  CA  GLY A  14      11.403 -25.130  28.372  1.00  0.00    +0.201 C 
ATOM    102  C   GLY A  14      10.304 -26.093  27.952  1.00  0.00    +0.264 C 
ATOM    103  O   GLY A  14       9.799 -26.859  28.772  1.00  0.00    -0.271 OA
ATOM    104  N   ALA A  15       9.933 -26.056  26.676  1.00  0.00    -0.196 N 
ATOM    105  CA  ALA A  15       8.907 -26.955  26.155  1.00  0.00    +0.173 C 
ATOM    106  C   ALA A  15       9.342 -28.406  26.273  1.00  0.00    +0.262 C 
ATOM    107  O   ALA A  15       8.522 -29.283  26.540  1.00  0.00    -0.271 OA
ATOM    108  CB  ALA A  15       8.596 -26.633  24.703  1.00  0.00    +0.033 C 
ATOM    109  N   SER A  16      10.632 -28.661  26.073  1.00  0.00    -0.194 N 
ATOM    110  CA  SER A  16      11.087 -29.420  24.913  1.00  0.00    +0.205 C 
ATOM    111  C   SER A  16      10.634 -30.870  24.991  1.00  0.00    +0.264 C 
ATOM    112  O   SER A  16      10.773 -31.620  24.026  1.00  0.00    -0.271 OA
ATOM    113  CB  SER A  16      12.601 -29.368  24.796  1.00  0.00    +0.213 C 
ATOM    114  OG  SER A  16      13.204 -29.383  26.078  1.00  0.00    -0.218 OA
ATOM    115  N   ASP A  17      10.094 -31.264  26.140  1.00  0.00    -0.196 N 
ATOM    116  CA  ASP A  17      10.332 -32.604  26.672  1.00  0.00    +0.184 C 
ATOM    117  C   ASP A  17       9.161 -33.526  26.369  1.00  0.00    +0.262 C 
ATOM    118  O   ASP A  17       8.586 -34.125  27.278  1.00  0.00    -0.271 OA
ATOM    119  CB  ASP A  17      10.568 -32.558  28.173  1.00  0.00    +0.145 C 
ATOM    120  CG  ASP A  17      11.810 -31.770  28.556  1.00  0.00    +0.367 C 
ATOM    121  OD1 ASP A  17      12.825 -31.842  27.830  1.00  0.00    -0.246 OA
ATOM    122  OD2 ASP A  17      11.770 -31.072  29.593  1.00  0.00    -0.246 OA
ATOM    123  N   TRP A  18       8.806 -33.640  25.092  1.00  0.00    -0.196 N 
ATOM    124  CA  TRP A  18       8.189 -34.860  24.581  1.00  0.00    +0.177 C 
ATOM    125  C   TRP A  18       8.979 -35.416  23.406  1.00  0.00    +0.262 C 
ATOM    126  O   TRP A  18       9.877 -34.754  22.888  1.00  0.00    -0.271 OA
ATOM    127  CB  TRP A  18       6.755 -34.603  24.151  1.00  0.00    +0.055 C 
ATOM    128  CG  TRP A  18       6.621 -34.043  22.767  1.00  0.00    -0.014 C 
ATOM    129  CD1 TRP A  18       7.064 -34.609  21.601  1.00  0.00    +0.091 C 
ATOM    130  CD2 TRP A  18       6.004 -32.806  22.402  1.00  0.00    +0.082 C 
ATOM    131  NE1 TRP A  18       6.740 -33.769  20.555  1.00  0.00    -0.248 NA
ATOM    132  CE2 TRP A  18       6.092 -32.658  21.013  1.00  0.00    +0.066 C 
ATOM    133  CE3 TRP A  18       5.373 -31.787  23.125  1.00  0.00    -0.016 C 
ATOM    134  CZ2 TRP A  18       5.558 -31.520  20.394  1.00  0.00    +0.015 C 
ATOM    135  CZ3 TRP A  18       4.856 -30.670  22.457  1.00  0.00    -0.004 C 
ATOM    136  CH2 TRP A  18       4.937 -30.532  21.166  1.00  0.00    +0.001 C 
ATOM    137  N   ILE A  19       8.644 -36.632  22.984  1.00  0.00    -0.196 N 
ATOM    138  CA  ILE A  19       8.797 -37.802  23.842  1.00  0.00    +0.173 C 
ATOM    139  C   ILE A  19       9.853 -38.729  23.263  1.00  0.00    +0.262 C 
ATOM    140  O   ILE A  19      10.046 -38.775  22.049  1.00  0.00    -0.271 OA
ATOM    141  CB  ILE A  19       7.490 -38.562  24.005  1.00  0.00    +0.029 C 
ATOM    142  CG1 ILE A  19       6.442 -38.051  23.019  1.00  0.00    +0.002 C 
ATOM    143  CG2 ILE A  19       6.961 -38.412  25.430  1.00  0.00    +0.002 C 
ATOM    144  CD1 ILE A  19       5.011 -38.375  23.417  1.00  0.00    +0.000 C 
ATOM    145  N   ARG A  20      10.539 -39.469  24.131  1.00  0.00    -0.196 N 
ATOM    146  CA  ARG A  20      10.501 -40.927  24.081  1.00  0.00    +0.173 C 
ATOM    147  C   ARG A  20       9.138 -41.452  24.504  1.00  0.00    +0.262 C 
ATOM    148  O   ARG A  20       8.370 -41.933  23.675  1.00  0.00    -0.271 OA
ATOM    149  CB  ARG A  20      11.574 -41.527  24.975  1.00  0.00    +0.033 C 
ATOM    150  CG  ARG A  20      12.955 -40.926  24.764  1.00  0.00    +0.029 C 
ATOM    151  CD  ARG A  20      14.010 -41.624  25.607  1.00  0.00    +0.129 C 
ATOM    152  NE  ARG A  20      15.350 -41.124  25.319  1.00  0.00    -0.234 NA
ATOM    153  CZ  ARG A  20      16.384 -41.194  26.153  1.00  0.00    +0.284 C 
ATOM    154  NH1 ARG A  20      16.306 -41.917  27.267  1.00  0.00    -0.104 N 
ATOM    155  NH2 ARG A  20      17.504 -40.538  25.869  1.00  0.00    -0.104 N 
ATOM    156  N   ARG A  21       8.838 -41.359  25.796  1.00  0.00    -0.194 N 
ATOM    157  CA  ARG A  21       8.024 -42.371  26.463  1.00  0.00    +0.198 C 
ATOM    158  C   ARG A  21       6.567 -41.941  26.524  1.00  0.00    +0.384 C 
ATOM    159  O   ARG A  21       5.699 -42.590  25.940  1.00  0.00    -0.244 OA
ATOM    160  CB  ARG A  21       8.534 -42.639  27.869  1.00  0.00    +0.035 C 
ATOM    161  CG  ARG A  21       8.273 -44.055  28.357  1.00  0.00    +0.029 C 
ATOM    162  CD  ARG A  21       9.024 -45.085  27.530  1.00  0.00    +0.129 C 
ATOM    163  NE  ARG A  21       8.836 -44.867  26.098  1.00  0.00    -0.234 NA
ATOM    164  CZ  ARG A  21       8.182 -45.690  25.285  1.00  0.00    +0.284 C 
ATOM    165  NH1 ARG A  21       8.840 -46.585  24.552  1.00  0.00    -0.104 N 
ATOM    166  NH2 ARG A  21       6.856 -45.617  25.202  1.00  0.00    -0.104 N 
ATOM    167  OXT ARG A  21       6.237 -40.940  27.159  1.00  0.00    -0.244 OA
ATOM    168  H   MET A   1      11.757  -1.503  30.589  1.00  0.00    +0.000 HD
ATOM    169  H   MET A   1      10.199  -2.092  30.623  1.00  0.00    +0.000 HD
ATOM    170  H   LYS A   2      14.489  -4.498  28.727  1.00  0.00    +0.000 HD
ATOM    171  H   LYS A   2      13.716  -8.549  28.413  1.00  0.00    +0.000 HD
ATOM    172  H   LEU A   3      14.310  -3.363  32.973  1.00  0.00    +0.000 HD
ATOM    173  H   PHE A   6       9.001  -9.170  39.032  1.00  0.00    +0.000 HD
ATOM    174  H   ALA A   7       8.533 -13.973  37.510  1.00  0.00    +0.000 HD
ATOM    175  H   LEU A   8      12.585 -11.693  37.483  1.00  0.00    +0.000 HD
ATOM    176  H   LEU A   9      14.071 -12.265  33.005  1.00  0.00    +0.000 HD
ATOM    177  H   VAL A  10      12.819 -16.438  34.408  1.00  0.00    +0.000 HD
ATOM    178  H   VAL A  11      12.224 -17.250  31.680  1.00  0.00    +0.000 HD
ATOM    179  H   PHE A  12      14.263 -20.508  31.026  1.00  0.00    +0.000 HD
ATOM    180  H   ALA A  13      13.212 -22.924  31.332  1.00  0.00    +0.000 HD
ATOM    181  H   GLY A  14      11.180 -25.244  30.480  1.00  0.00    +0.000 HD
ATOM    182  H   ALA A  15      10.359 -25.408  26.070  1.00  0.00    +0.000 HD
ATOM    183  H   SER A  16      11.294 -28.330  26.722  1.00  0.00    +0.000 HD
ATOM    184  H   SER A  16      12.962 -30.202  26.540  1.00  0.00    +0.000 HD
ATOM    185  H   ASP A  17       9.522 -30.641  26.643  1.00  0.00    +0.000 HD
ATOM    186  H   ASP A  17      10.989 -31.045  30.110  1.00  0.00    +0.000 HD
ATOM    187  H   TRP A  18       8.963 -32.886  24.479  1.00  0.00    +0.000 HD
ATOM    188  H   ILE A  19       8.285 -36.744  22.074  1.00  0.00    +0.000 HD
ATOM    189  H   ARG A  20      11.082 -39.023  24.820  1.00  0.00    +0.000 HD
ATOM    190  H   ARG A  20      17.076 -41.964  27.879  1.00  0.00    +0.000 HD
ATOM    191  H   ARG A  20      15.478 -42.405  27.481  1.00  0.00    +0.000 HD
ATOM    192  H   ARG A  20      18.272 -40.587  26.483  1.00  0.00    +0.000 HD
ATOM    193  H   ARG A  20      17.566 -40.003  25.045  1.00  0.00    +0.000 HD
ATOM    194  H   ARG A  21       9.173 -40.592  26.314  1.00  0.00    +0.000 HD
ATOM    195  H   ARG A  21       9.821 -46.643  24.609  1.00  0.00    +0.000 HD
ATOM    196  H   ARG A  21       8.346 -47.189  23.953  1.00  0.00    +0.000 HD
ATOM    197  H   ARG A  21       6.365 -46.224  24.602  1.00  0.00    +0.000 HD
ATOM    198  H   ARG A  21       6.365 -44.955  25.742  1.00  0.00    +0.000 HD
ATOM    199  H   ARG A  21       6.885 -40.435  27.610  1.00  0.00    +0.000 HD
ENDROOT
TORSDOF 0
