REMARK  Name = /var/folders/yp/yjbh3p597675h2qddgqr02y00000gn/T/tmpkne0socr.pdb
REMARK     285 UNITARY VALUES FOR THE UNIT CELL AUTOMATICALLY SET
REMARK     285 BY MDANALYSIS PDBWRITER BECAUSE UNIT CELL INFORMATION
REMARK     285 WAS MISSING.
REMARK     285 PROTEIN DATA BANK CONVENTIONS REQUIRE THAT
REMARK     285 CRYST1 RECORD IS INCLUDED, BUT THE VALUES ON
REMARK     285 THIS RECORD ARE MEANINGLESS.
REMARK     285 UNITARY VALUES FOR THE UNIT CELL AUTOMATICALLY SET
REMARK     285 BY MDANALYSIS PDBWRITER BECAUSE UNIT CELL INFORMATION
REMARK     285 WAS MISSING.
REMARK     285 PROTEIN DATA BANK CONVENTIONS REQUIRE THAT
REMARK     285 CRYST1 RECORD IS INCLUDED, BUT THE VALUES ON
REMARK     285 THIS RECORD ARE MEANINGLESS.
REMARK                            x       y       z     vdW  Elec       q    Type
REMARK                         _______ _______ _______ _____ _____    ______ ____
ROOT
ATOM      1  N   MET A   1     -41.341   9.182 -23.671  1.00  0.00    -0.133 NA
ATOM      2  CA  MET A   1     -40.199   8.308 -23.411  1.00  0.00    +0.102 C 
ATOM      3  C   MET A   1     -39.616   8.574 -22.033  1.00  0.00    +0.096 C 
ATOM      4  O   MET A   1     -39.596   9.714 -21.572  1.00  0.00    -0.247 OA
ATOM      5  CB  MET A   1     -39.121   8.498 -24.464  1.00  0.00    +0.031 C 
ATOM      6  CG  MET A   1     -38.115   7.359 -24.520  1.00  0.00    +0.059 C 
ATOM      7  SD  MET A   1     -36.518   7.870 -25.201  1.00  0.00    -0.139 S 
ATOM      8  CE  MET A   1     -36.442   9.563 -24.628  1.00  0.00    +0.069 C 
ATOM      9  N   LYS A   2     -39.139   7.520 -21.375  1.00  0.00    +0.423 N 
ATOM     10  CA  LYS A   2     -37.939   7.620 -20.550  1.00  0.00    -0.065 C 
ATOM     11  C   LYS A   2     -36.794   6.819 -21.150  1.00  0.00    +0.376 C 
ATOM     12  O   LYS A   2     -37.023   5.818 -21.828  1.00  0.00    -0.166 OA
ATOM     13  CB  LYS A   2     -38.212   7.134 -19.136  1.00  0.00    +0.071 C 
ATOM     14  CG  LYS A   2     -38.150   8.230 -18.086  1.00  0.00    +0.024 C 
ATOM     15  CD  LYS A   2     -39.358   9.149 -18.157  1.00  0.00    +0.050 C 
ATOM     16  CE  LYS A   2     -39.419   9.863 -19.429  1.00  0.00    +0.096 C 
ATOM     17  NZ  LYS A   2     -39.674  11.161 -19.560  1.00  0.00    -0.151 NA
ATOM     18  N   LEU A   3     -35.564   7.258 -20.903  1.00  0.00    -0.184 NA
ATOM     19  CA  LEU A   3     -34.628   6.483 -20.094  1.00  0.00    +0.017 C 
ATOM     20  C   LEU A   3     -34.961   6.604 -18.616  1.00  0.00    +0.203 C 
ATOM     21  O   LEU A   3     -35.441   7.643 -18.166  1.00  0.00    -0.329 OA
ATOM     22  CB  LEU A   3     -33.199   6.945 -20.331  1.00  0.00    -0.038 C 
ATOM     23  CG  LEU A   3     -32.631   6.685 -21.728  1.00  0.00    -0.018 C 
ATOM     24  CD1 LEU A   3     -31.356   7.493 -21.939  1.00  0.00    -0.002 C 
ATOM     25  CD2 LEU A   3     -33.503   7.345 -22.791  1.00  0.00    -0.002 C 
ATOM     26  N   ALA A   4     -34.708   5.540 -17.859  1.00  0.00    -0.184 NA
ATOM     27  CA  ALA A   4     -34.153   5.677 -16.515  1.00  0.00    +0.151 C 
ATOM     28  C   ALA A   4     -32.753   6.267 -16.559  1.00  0.00    +0.242 C 
ATOM     29  O   ALA A   4     -32.084   6.204 -17.589  1.00  0.00    -0.273 OA
ATOM     30  CB  ALA A   4     -34.116   4.333 -15.806  1.00  0.00    +0.029 C 
ATOM     31  N   PRO A   5     -32.311   6.839 -15.442  1.00  0.00    -0.273 N 
ATOM     32  CA  PRO A   5     -30.898   6.812 -15.082  1.00  0.00    +0.153 C 
ATOM     33  C   PRO A   5     -30.673   6.559 -13.600  1.00  0.00    +0.260 C 
ATOM     34  O   PRO A   5     -31.628   6.475 -12.828  1.00  0.00    -0.272 OA
ATOM     35  CB  PRO A   5     -30.399   8.202 -15.440  1.00  0.00    +0.031 C 
ATOM     36  CG  PRO A   5     -31.593   9.077 -15.264  1.00  0.00    +0.022 C 
ATOM     37  CD  PRO A   5     -32.758   8.231 -15.683  1.00  0.00    +0.077 C 
ATOM     38  N   PHE A   6     -29.410   6.438 -13.199  1.00  0.00    -0.196 N 
ATOM     39  CA  PHE A   6     -29.079   5.924 -11.875  1.00  0.00    +0.177 C 
ATOM     40  C   PHE A   6     -29.186   7.022 -10.828  1.00  0.00    +0.262 C 
ATOM     41  O   PHE A   6     -28.515   8.048 -10.929  1.00  0.00    -0.271 OA
ATOM     42  CB  PHE A   6     -27.675   5.339 -11.855  1.00  0.00    +0.057 C 
ATOM     43  CG  PHE A   6     -26.590   6.372 -11.776  1.00  0.00    -0.020 A 
ATOM     44  CD1 PHE A   6     -26.262   6.943 -10.553  1.00  0.00    -0.004 A 
ATOM     45  CE1 PHE A   6     -25.255   7.900 -10.479  1.00  0.00    -0.000 A 
ATOM     46  CD2 PHE A   6     -25.913   6.758 -12.927  1.00  0.00    -0.004 A 
ATOM     47  CE2 PHE A   6     -24.907   7.715 -12.854  1.00  0.00    -0.000 A 
ATOM     48  CZ  PHE A   6     -24.578   8.285 -11.630  1.00  0.00    -0.000 A 
ATOM     49  N   ALA A   7     -30.030   6.807  -9.823  1.00  0.00    -0.196 N 
ATOM     50  CA  ALA A   7     -31.453   6.578 -10.060  1.00  0.00    +0.173 C 
ATOM     51  C   ALA A   7     -32.121   7.824 -10.617  1.00  0.00    +0.262 C 
ATOM     52  O   ALA A   7     -31.638   8.936 -10.409  1.00  0.00    -0.271 OA
ATOM     53  CB  ALA A   7     -32.152   6.157  -8.778  1.00  0.00    +0.033 C 
ATOM     54  N   LEU A   8     -33.232   7.639 -11.324  1.00  0.00    -0.196 N 
ATOM     55  CA  LEU A   8     -34.378   8.532 -11.185  1.00  0.00    +0.174 C 
ATOM     56  C   LEU A   8     -35.165   8.212  -9.922  1.00  0.00    +0.262 C 
ATOM     57  O   LEU A   8     -35.079   7.101  -9.399  1.00  0.00    -0.271 OA
ATOM     58  CB  LEU A   8     -35.295   8.425 -12.393  1.00  0.00    +0.044 C 
ATOM     59  CG  LEU A   8     -34.812   9.121 -13.666  1.00  0.00    +0.068 C 
ATOM     60  CD1 LEU A   8     -35.963   9.272 -14.654  1.00  0.00    -0.092 C 
ATOM     61  CD2 LEU A   8     -33.924   8.190 -14.484  1.00  0.00    +0.033 C 
ATOM     62  N   LEU A   9     -35.927   9.185  -9.433  1.00  0.00    -0.196 N 
ATOM     63  CA  LEU A   9     -37.181   8.893  -8.743  1.00  0.00    +0.173 C 
ATOM     64  C   LEU A   9     -38.360   8.990  -9.695  1.00  0.00    +0.262 C 
ATOM     65  O   LEU A   9     -38.701  10.076 -10.160  1.00  0.00    -0.271 OA
ATOM     66  CB  LEU A   9     -37.389   9.849  -7.579  1.00  0.00    +0.031 C 
ATOM     67  CG  LEU A   9     -36.611   9.532  -6.300  1.00  0.00    +0.002 C 
ATOM     68  CD1 LEU A   9     -37.159  10.347  -5.134  1.00  0.00    +0.000 C 
ATOM     69  CD2 LEU A   9     -35.209  10.129  -6.364  1.00  0.00    +0.000 C 
ATOM     70  N   VAL A  10     -38.986   7.853  -9.989  1.00  0.00    -0.196 N 
ATOM     71  CA  VAL A  10     -38.739   7.152 -11.246  1.00  0.00    +0.173 C 
ATOM     72  C   VAL A  10     -39.656   7.701 -12.327  1.00  0.00    +0.262 C 
ATOM     73  O   VAL A  10     -40.878   7.648 -12.198  1.00  0.00    -0.271 OA
ATOM     74  CB  VAL A  10     -38.955   5.654 -11.110  1.00  0.00    +0.029 C 
ATOM     75  CG1 VAL A  10     -38.012   4.887 -12.036  1.00  0.00    +0.002 C 
ATOM     76  CG2 VAL A  10     -38.676   5.204  -9.678  1.00  0.00    +0.002 C 
ATOM     77  N   VAL A  11     -39.067   8.229 -13.397  1.00  0.00    -0.195 N 
ATOM     78  CA  VAL A  11     -39.772   8.352 -14.670  1.00  0.00    +0.185 C 
ATOM     79  C   VAL A  11     -39.706   7.033 -15.422  1.00  0.00    +0.263 C 
ATOM     80  O   VAL A  11     -38.707   6.318 -15.346  1.00  0.00    -0.271 OA
ATOM     81  CB  VAL A  11     -39.193   9.460 -15.535  1.00  0.00    +0.093 C 
ATOM     82  CG1 VAL A  11     -39.832  10.803 -15.191  1.00  0.00    +0.016 C 
ATOM     83  CG2 VAL A  11     -37.688   9.582 -15.305  1.00  0.00    -0.090 C 
ATOM     84  N   PHE A  12     -40.770   6.708 -16.150  1.00  0.00    -0.196 N 
ATOM     85  CA  PHE A  12     -40.849   5.430 -16.854  1.00  0.00    +0.177 C 
ATOM     86  C   PHE A  12     -40.266   5.547 -18.251  1.00  0.00    +0.260 C 
ATOM     87  O   PHE A  12     -39.790   4.562 -18.814  1.00  0.00    -0.272 OA
ATOM     88  CB  PHE A  12     -42.289   4.950 -16.943  1.00  0.00    +0.057 C 
ATOM     89  CG  PHE A  12     -42.729   4.129 -15.768  1.00  0.00    -0.020 A 
ATOM     90  CD1 PHE A  12     -42.321   2.805 -15.652  1.00  0.00    -0.004 A 
ATOM     91  CE1 PHE A  12     -42.730   2.046 -14.562  1.00  0.00    -0.000 A 
ATOM     92  CD2 PHE A  12     -43.545   4.693 -14.793  1.00  0.00    -0.004 A 
ATOM     93  CE2 PHE A  12     -43.953   3.932 -13.704  1.00  0.00    -0.000 A 
ATOM     94  CZ  PHE A  12     -43.546   2.610 -13.587  1.00  0.00    -0.000 A 
ATOM     95  N   ALA A  13     -40.304   6.751 -18.814  1.00  0.00    -0.228 N 
ATOM     96  CA  ALA A  13     -39.858   6.962 -20.189  1.00  0.00    +0.031 C 
ATOM     97  C   ALA A  13     -38.371   6.685 -20.330  1.00  0.00    -0.005 C 
ATOM     98  O   ALA A  13     -37.848   6.640 -21.443  1.00  0.00    -0.166 OA
ATOM     99  CB  ALA A  13     -40.156   8.382 -20.640  1.00  0.00    -0.034 C 
ATOM    100  N   GLY A  14     -37.688   6.502 -19.205  1.00  0.00    -0.215 NA
ATOM    101  CA  GLY A  14     -36.252   6.237 -19.220  1.00  0.00    +0.135 C 
ATOM    102  C   GLY A  14     -35.462   7.535 -19.190  1.00  0.00    +0.233 C 
ATOM    103  O   GLY A  14     -35.979   8.572 -18.775  1.00  0.00    -0.212 OA
ATOM    104  N   ALA A  15     -34.209   7.480 -19.629  1.00  0.00    +0.445 N 
ATOM    105  CA  ALA A  15     -33.279   8.587 -19.415  1.00  0.00    +0.027 C 
ATOM    106  C   ALA A  15     -33.595   9.751 -20.338  1.00  0.00    +0.223 C 
ATOM    107  O   ALA A  15     -34.270   9.580 -21.352  1.00  0.00    -0.276 OA
ATOM    108  CB  ALA A  15     -31.845   8.137 -19.640  1.00  0.00    -0.013 C 
ATOM    109  N   SER A  16     -33.110  10.939 -19.987  1.00  0.00    -0.197 N 
ATOM    110  CA  SER A  16     -33.133  12.072 -20.907  1.00  0.00    +0.205 C 
ATOM    111  C   SER A  16     -32.194  11.847 -22.082  1.00  0.00    +0.264 C 
ATOM    112  O   SER A  16     -31.127  11.258 -21.925  1.00  0.00    -0.271 OA
ATOM    113  CB  SER A  16     -32.746  13.356 -20.190  1.00  0.00    +0.213 C 
ATOM    114  OG  SER A  16     -33.343  13.411 -18.905  1.00  0.00    -0.218 OA
ATOM    115  N   ASP A  17     -32.592  12.317 -23.262  1.00  0.00    -0.196 N 
ATOM    116  CA  ASP A  17     -31.863  13.385 -23.940  1.00  0.00    +0.184 C 
ATOM    117  C   ASP A  17     -32.326  14.751 -23.460  1.00  0.00    +0.262 C 
ATOM    118  O   ASP A  17     -33.482  14.919 -23.077  1.00  0.00    -0.271 OA
ATOM    119  CB  ASP A  17     -32.039  13.289 -25.447  1.00  0.00    +0.145 C 
ATOM    120  CG  ASP A  17     -31.731  11.906 -25.995  1.00  0.00    +0.367 C 
ATOM    121  OD1 ASP A  17     -31.621  10.945 -25.204  1.00  0.00    -0.246 OA
ATOM    122  OD2 ASP A  17     -31.598  11.776 -27.231  1.00  0.00    -0.246 OA
ATOM    123  N   TRP A  18     -31.424  15.727 -23.481  1.00  0.00    -0.196 N 
ATOM    124  CA  TRP A  18     -31.823  17.132 -23.448  1.00  0.00    +0.177 C 
ATOM    125  C   TRP A  18     -31.316  17.868 -24.676  1.00  0.00    +0.262 C 
ATOM    126  O   TRP A  18     -30.409  17.395 -25.359  1.00  0.00    -0.271 OA
ATOM    127  CB  TRP A  18     -31.297  17.812 -22.195  1.00  0.00    +0.055 C 
ATOM    128  CG  TRP A  18     -30.811  16.864 -21.139  1.00  0.00    -0.016 C 
ATOM    129  CD1 TRP A  18     -31.579  16.096 -20.304  1.00  0.00    +0.148 C 
ATOM    130  CD2 TRP A  18     -29.450  16.582 -20.805  1.00  0.00    +0.011 A 
ATOM    131  NE1 TRP A  18     -30.740  15.368 -19.485  1.00  0.00    -0.266 NA
ATOM    132  CE2 TRP A  18     -29.433  15.643 -19.766  1.00  0.00    +0.076 A 
ATOM    133  CE3 TRP A  18     -28.218  17.038 -21.290  1.00  0.00    +0.001 A 
ATOM    134  CZ2 TRP A  18     -28.212  15.193 -19.250  1.00  0.00    +0.019 A 
ATOM    135  CZ3 TRP A  18     -27.027  16.556 -20.736  1.00  0.00    +0.000 A 
ATOM    136  CH2 TRP A  18     -27.009  15.684 -19.771  1.00  0.00    +0.002 A 
ATOM    137  N   ILE A  19     -31.902  19.028 -24.960  1.00  0.00    -0.196 N 
ATOM    138  CA  ILE A  19     -31.118  20.209 -25.313  1.00  0.00    +0.173 C 
ATOM    139  C   ILE A  19     -31.264  21.264 -24.229  1.00  0.00    +0.262 C 
ATOM    140  O   ILE A  19     -32.359  21.489 -23.719  1.00  0.00    -0.271 OA
ATOM    141  CB  ILE A  19     -31.543  20.793 -26.651  1.00  0.00    +0.029 C 
ATOM    142  CG1 ILE A  19     -31.927  19.683 -27.627  1.00  0.00    +0.002 C 
ATOM    143  CG2 ILE A  19     -30.414  21.627 -27.250  1.00  0.00    +0.002 C 
ATOM    144  CD1 ILE A  19     -31.799  20.076 -29.090  1.00  0.00    +0.000 C 
ATOM    145  N   ARG A  20     -30.157  21.911 -23.876  1.00  0.00    -0.196 N 
ATOM    146  CA  ARG A  20     -30.060  23.364 -23.984  1.00  0.00    +0.173 C 
ATOM    147  C   ARG A  20     -29.879  23.791 -25.432  1.00  0.00    +0.262 C 
ATOM    148  O   ARG A  20     -30.611  23.339 -26.313  1.00  0.00    -0.271 OA
ATOM    149  CB  ARG A  20     -28.903  23.894 -23.153  1.00  0.00    +0.033 C 
ATOM    150  CG  ARG A  20     -27.681  24.277 -23.975  1.00  0.00    +0.029 C 
ATOM    151  CD  ARG A  20     -26.625  24.967 -23.128  1.00  0.00    +0.129 C 
ATOM    152  NE  ARG A  20     -25.569  24.043 -22.727  1.00  0.00    -0.234 NA
ATOM    153  CZ  ARG A  20     -24.636  24.307 -21.816  1.00  0.00    +0.284 C 
ATOM    154  NH1 ARG A  20     -24.648  25.456 -21.146  1.00  0.00    -0.104 N 
ATOM    155  NH2 ARG A  20     -23.682  23.412 -21.572  1.00  0.00    -0.104 N 
ATOM    156  N   ARG A  21     -28.906  24.661 -25.682  1.00  0.00    -0.194 N 
ATOM    157  CA  ARG A  21     -29.020  25.643 -26.756  1.00  0.00    +0.198 C 
ATOM    158  C   ARG A  21     -27.856  25.525 -27.728  1.00  0.00    +0.384 C 
ATOM    159  O   ARG A  21     -28.060  25.438 -28.937  1.00  0.00    -0.244 OA
ATOM    160  CB  ARG A  21     -29.071  27.055 -26.196  1.00  0.00    +0.035 C 
ATOM    161  CG  ARG A  21     -30.464  27.500 -25.777  1.00  0.00    +0.029 C 
ATOM    162  CD  ARG A  21     -31.508  27.141 -26.822  1.00  0.00    +0.129 C 
ATOM    163  NE  ARG A  21     -31.310  27.890 -28.060  1.00  0.00    -0.234 NA
ATOM    164  CZ  ARG A  21     -32.081  28.891 -28.473  1.00  0.00    +0.284 C 
ATOM    165  NH1 ARG A  21     -32.159  29.198 -29.765  1.00  0.00    -0.104 N 
ATOM    166  NH2 ARG A  21     -32.779  29.594 -27.585  1.00  0.00    -0.104 N 
ATOM    167  OXT ARG A  21     -26.698  25.516 -27.317  1.00  0.00    -0.244 OA
ATOM    168  H   MET A   1     -41.715   8.985 -24.600  1.00  0.00    +0.000 HD
ATOM    169  H   MET A   1     -41.041  10.155 -23.625  1.00  0.00    +0.000 HD
ATOM    170  H   MET A   1     -39.991  10.328 -22.211  1.00  0.00    +0.000 HD
ATOM    171  H   LYS A   2     -39.838  11.713 -18.761  1.00  0.00    +0.000 HD
ATOM    172  H   LEU A   3     -35.668   8.160 -20.437  1.00  0.00    +0.000 HD
ATOM    173  H   ALA A   4     -34.052   4.962 -18.384  1.00  0.00    +0.000 HD
ATOM    174  H   PHE A   6     -28.683   6.701 -13.809  1.00  0.00    +0.000 HD
ATOM    175  H   ALA A   7     -29.689   6.802  -8.900  1.00  0.00    +0.000 HD
ATOM    176  H   LEU A   8     -33.282   6.884 -11.953  1.00  0.00    +0.000 HD
ATOM    177  H   LEU A   9     -35.642  10.120  -9.539  1.00  0.00    +0.000 HD
ATOM    178  H   VAL A  10     -39.628   7.476  -9.346  1.00  0.00    +0.000 HD
ATOM    179  H   VAL A  11     -38.137   8.543 -13.328  1.00  0.00    +0.000 HD
ATOM    180  H   PHE A  12     -41.520   7.341 -16.216  1.00  0.00    +0.000 HD
ATOM    181  H   ALA A  13     -40.639   7.516 -18.294  1.00  0.00    +0.000 HD
ATOM    182  H   GLY A  14     -37.977   6.095 -20.095  1.00  0.00    +0.000 HD
ATOM    183  H   GLY A  14     -36.283   9.105 -19.527  1.00  0.00    +0.000 HD
ATOM    184  H   SER A  16     -32.727  11.056 -19.087  1.00  0.00    +0.000 HD
ATOM    185  H   SER A  16     -33.037  12.660 -18.374  1.00  0.00    +0.000 HD
ATOM    186  H   ASP A  17     -33.395  11.937 -23.686  1.00  0.00    +0.000 HD
ATOM    187  H   ASP A  17     -31.728  11.082 -24.282  1.00  0.00    +0.000 HD
ATOM    188  H   TRP A  18     -30.468  15.499 -23.518  1.00  0.00    +0.000 HD
ATOM    189  H   ILE A  19     -32.884  19.092 -24.931  1.00  0.00    +0.000 HD
ATOM    190  H   ARG A  20     -29.387  21.401 -23.535  1.00  0.00    +0.000 HD
ATOM    191  H   ARG A  20     -25.352  26.121 -21.322  1.00  0.00    +0.000 HD
ATOM    192  H   ARG A  20     -23.953  25.641 -20.473  1.00  0.00    +0.000 HD
ATOM    193  H   ARG A  20     -22.989  23.601 -20.899  1.00  0.00    +0.000 HD
ATOM    194  H   ARG A  20     -23.669  22.560 -22.065  1.00  0.00    +0.000 HD
ATOM    195  H   ARG A  21     -28.090  24.642 -25.131  1.00  0.00    +0.000 HD
ATOM    196  H   ARG A  21     -32.733  29.942 -30.061  1.00  0.00    +0.000 HD
ATOM    197  H   ARG A  21     -31.643  28.682 -30.426  1.00  0.00    +0.000 HD
ATOM    198  H   ARG A  21     -33.351  30.336 -27.884  1.00  0.00    +0.000 HD
ATOM    199  H   ARG A  21     -32.722  29.371 -26.628  1.00  0.00    +0.000 HD
ATOM    200  H   ARG A  21     -26.526  25.582 -26.397  1.00  0.00    +0.000 HD
ENDROOT
TORSDOF 0
