REMARK  Name = /var/folders/yp/yjbh3p597675h2qddgqr02y00000gn/T/tmp8zf_2pde.pdb
REMARK   1 CREATED WITH OPENMM 8.6.1, 2026-10-07
REMARK                            x       y       z     vdW  Elec       q    Type
REMARK                         _______ _______ _______ _____ _____    ______ ____
ROOT
ATOM      1  N   MET A   1       4.010   9.279 -26.783  1.00  0.00    -0.123 NA
ATOM      2  CA  MET A   1       4.211   9.146 -28.242  1.00  0.00    +0.170 C 
ATOM      3  C   MET A   1       4.587   7.715 -28.591  1.00  0.00    +0.259 C 
ATOM      4  O   MET A   1       5.395   7.090 -27.898  1.00  0.00    -0.272 OA
ATOM      5  CB  MET A   1       5.275  10.124 -28.747  1.00  0.00    +0.040 C 
ATOM      6  CG  MET A   1       5.292  10.254 -30.270  1.00  0.00    +0.060 C 
ATOM      7  SD  MET A   1       6.335  11.630 -30.816  1.00  0.00    -0.139 S 
ATOM      8  CE  MET A   1       5.876  11.690 -32.563  1.00  0.00    +0.069 C 
ATOM      9  N   LYS A   2       3.957   7.167 -29.630  1.00  0.00    -0.197 N 
ATOM     10  CA  LYS A   2       3.872   5.716 -29.822  1.00  0.00    +0.173 C 
ATOM     11  C   LYS A   2       5.142   5.122 -30.425  1.00  0.00    +0.262 C 
ATOM     12  O   LYS A   2       5.718   5.683 -31.357  1.00  0.00    -0.271 OA
ATOM     13  CB  LYS A   2       2.656   5.392 -30.703  1.00  0.00    +0.031 C 
ATOM     14  CG  LYS A   2       1.334   5.550 -29.938  1.00  0.00    +0.004 C 
ATOM     15  CD  LYS A   2       0.109   5.391 -30.845  1.00  0.00    +0.021 C 
ATOM     16  CE  LYS A   2       0.015   3.947 -31.334  1.00  0.00    +0.109 C 
ATOM     17  NZ  LYS A   2      -1.362   3.524 -31.638  1.00  0.00    -0.131 NA
ATOM     18  N   LEU A   3       5.493   3.928 -29.951  1.00  0.00    -0.196 N 
ATOM     19  CA  LEU A   3       5.716   2.793 -30.847  1.00  0.00    +0.173 C 
ATOM     20  C   LEU A   3       4.364   2.164 -31.199  1.00  0.00    +0.262 C 
ATOM     21  O   LEU A   3       3.466   2.086 -30.352  1.00  0.00    -0.271 OA
ATOM     22  CB  LEU A   3       6.597   1.734 -30.164  1.00  0.00    +0.031 C 
ATOM     23  CG  LEU A   3       8.090   2.080 -30.089  1.00  0.00    +0.002 C 
ATOM     24  CD1 LEU A   3       8.777   1.886 -31.437  1.00  0.00    +0.000 C 
ATOM     25  CD2 LEU A   3       8.798   1.110 -29.148  1.00  0.00    +0.000 C 
ATOM     26  N   ALA A   4       4.224   1.690 -32.435  1.00  0.00    -0.196 N 
ATOM     27  CA  ALA A   4       3.054   0.920 -32.830  1.00  0.00    +0.171 C 
ATOM     28  C   ALA A   4       2.942  -0.368 -31.997  1.00  0.00    +0.246 C 
ATOM     29  O   ALA A   4       3.954  -1.043 -31.766  1.00  0.00    -0.273 OA
ATOM     30  CB  ALA A   4       3.123   0.583 -34.321  1.00  0.00    +0.033 C 
ATOM     31  N   PRO A   5       1.727  -0.746 -31.578  1.00  0.00    -0.272 N 
ATOM     32  CA  PRO A   5       1.410  -2.130 -31.261  1.00  0.00    +0.154 C 
ATOM     33  C   PRO A   5       1.230  -2.972 -32.527  1.00  0.00    +0.260 C 
ATOM     34  O   PRO A   5       0.932  -2.448 -33.605  1.00  0.00    -0.272 OA
ATOM     35  CB  PRO A   5       0.108  -2.057 -30.468  1.00  0.00    +0.031 C 
ATOM     36  CG  PRO A   5      -0.589  -0.831 -31.043  1.00  0.00    +0.024 C 
ATOM     37  CD  PRO A   5       0.564   0.110 -31.377  1.00  0.00    +0.094 C 
ATOM     38  N   PHE A   6       1.352  -4.290 -32.377  1.00  0.00    -0.196 N 
ATOM     39  CA  PHE A   6       0.855  -5.233 -33.369  1.00  0.00    +0.177 C 
ATOM     40  C   PHE A   6      -0.561  -5.711 -33.029  1.00  0.00    +0.262 C 
ATOM     41  O   PHE A   6      -0.872  -5.975 -31.867  1.00  0.00    -0.271 OA
ATOM     42  CB  PHE A   6       1.770  -6.440 -33.536  1.00  0.00    +0.057 C 
ATOM     43  CG  PHE A   6       2.870  -6.198 -34.535  1.00  0.00    -0.020 A 
ATOM     44  CD1 PHE A   6       4.115  -5.716 -34.102  1.00  0.00    -0.004 A 
ATOM     45  CE1 PHE A   6       5.143  -5.501 -35.031  1.00  0.00    -0.000 A 
ATOM     46  CD2 PHE A   6       2.647  -6.451 -35.900  1.00  0.00    -0.004 A 
ATOM     47  CE2 PHE A   6       3.676  -6.236 -36.830  1.00  0.00    -0.000 A 
ATOM     48  CZ  PHE A   6       4.925  -5.763 -36.394  1.00  0.00    -0.000 A 
ATOM     49  N   ALA A   7      -1.424  -5.870 -34.032  1.00  0.00    -0.196 N 
ATOM     50  CA  ALA A   7      -1.345  -5.083 -35.272  1.00  0.00    +0.173 C 
ATOM     51  C   ALA A   7      -1.789  -3.632 -35.022  1.00  0.00    +0.262 C 
ATOM     52  O   ALA A   7      -1.404  -2.723 -35.758  1.00  0.00    -0.271 OA
ATOM     53  CB  ALA A   7      -2.221  -5.732 -36.341  1.00  0.00    +0.033 C 
ATOM     54  N   LEU A   8      -2.663  -3.458 -34.022  1.00  0.00    -0.196 N 
ATOM     55  CA  LEU A   8      -3.938  -2.783 -34.248  1.00  0.00    +0.173 C 
ATOM     56  C   LEU A   8      -3.757  -1.314 -34.627  1.00  0.00    +0.262 C 
ATOM     57  O   LEU A   8      -3.168  -0.535 -33.876  1.00  0.00    -0.271 OA
ATOM     58  CB  LEU A   8      -4.838  -2.905 -32.992  1.00  0.00    +0.031 C 
ATOM     59  CG  LEU A   8      -6.114  -3.763 -33.166  1.00  0.00    +0.002 C 
ATOM     60  CD1 LEU A   8      -7.383  -3.047 -32.743  1.00  0.00    +0.000 C 
ATOM     61  CD2 LEU A   8      -6.118  -4.959 -32.229  1.00  0.00    +0.000 C 
ATOM     62  N   LEU A   9      -4.383  -0.935 -35.745  1.00  0.00    -0.196 N 
ATOM     63  CA  LEU A   9      -5.267   0.232 -35.778  1.00  0.00    +0.173 C 
ATOM     64  C   LEU A   9      -6.646  -0.177 -35.252  1.00  0.00    +0.262 C 
ATOM     65  O   LEU A   9      -7.162  -1.247 -35.581  1.00  0.00    -0.271 OA
ATOM     66  CB  LEU A   9      -5.419   0.781 -37.202  1.00  0.00    +0.031 C 
ATOM     67  CG  LEU A   9      -4.432   1.899 -37.559  1.00  0.00    +0.002 C 
ATOM     68  CD1 LEU A   9      -4.764   2.438 -38.945  1.00  0.00    +0.000 C 
ATOM     69  CD2 LEU A   9      -2.997   1.402 -37.654  1.00  0.00    +0.000 C 
ATOM     70  N   VAL A  10      -7.209   0.675 -34.399  1.00  0.00    -0.196 N 
ATOM     71  CA  VAL A  10      -7.638   0.226 -33.081  1.00  0.00    +0.173 C 
ATOM     72  C   VAL A  10      -9.152   0.155 -32.956  1.00  0.00    +0.262 C 
ATOM     73  O   VAL A  10      -9.825   1.184 -32.978  1.00  0.00    -0.271 OA
ATOM     74  CB  VAL A  10      -7.031   1.056 -31.946  1.00  0.00    +0.029 C 
ATOM     75  CG1 VAL A  10      -6.938   0.208 -30.667  1.00  0.00    +0.002 C 
ATOM     76  CG2 VAL A  10      -5.618   1.547 -32.271  1.00  0.00    +0.002 C 
ATOM     77  N   VAL A  11      -9.682  -1.044 -32.744  1.00  0.00    -0.196 N 
ATOM     78  CA  VAL A  11     -10.867  -1.247 -31.914  1.00  0.00    +0.173 C 
ATOM     79  C   VAL A  11     -10.410  -1.236 -30.457  1.00  0.00    +0.262 C 
ATOM     80  O   VAL A  11      -9.671  -2.128 -30.033  1.00  0.00    -0.271 OA
ATOM     81  CB  VAL A  11     -11.590  -2.573 -32.228  1.00  0.00    +0.029 C 
ATOM     82  CG1 VAL A  11     -13.102  -2.373 -32.093  1.00  0.00    +0.002 C 
ATOM     83  CG2 VAL A  11     -11.298  -3.095 -33.639  1.00  0.00    +0.002 C 
ATOM     84  N   PHE A  12     -10.820  -0.221 -29.698  1.00  0.00    -0.196 N 
ATOM     85  CA  PHE A  12     -10.720  -0.259 -28.235  1.00  0.00    +0.177 C 
ATOM     86  C   PHE A  12     -12.004  -0.839 -27.656  1.00  0.00    +0.262 C 
ATOM     87  O   PHE A  12     -11.972  -1.856 -26.962  1.00  0.00    -0.271 OA
ATOM     88  CB  PHE A  12     -10.398   1.115 -27.635  1.00  0.00    +0.057 C 
ATOM     89  CG  PHE A  12      -9.069   1.650 -27.985  1.00  0.00    -0.020 A 
ATOM     90  CD1 PHE A  12      -8.892   2.373 -29.176  1.00  0.00    -0.004 A 
ATOM     91  CE1 PHE A  12      -7.645   2.950 -29.441  1.00  0.00    -0.000 A 
ATOM     92  CD2 PHE A  12      -8.030   1.497 -27.065  1.00  0.00    -0.004 A 
ATOM     93  CE2 PHE A  12      -6.778   2.047 -27.352  1.00  0.00    -0.000 A 
ATOM     94  CZ  PHE A  12      -6.585   2.773 -28.537  1.00  0.00    -0.000 A 
ATOM     95  N   ALA A  13     -13.158  -0.256 -27.997  1.00  0.00    -0.196 N 
ATOM     96  CA  ALA A  13     -13.423   1.180 -27.755  1.00  0.00    +0.173 C 
ATOM     97  C   ALA A  13     -13.373   1.495 -26.243  1.00  0.00    +0.262 C 
ATOM     98  O   ALA A  13     -12.785   2.485 -25.807  1.00  0.00    -0.271 OA
ATOM     99  CB  ALA A  13     -14.726   1.629 -28.396  1.00  0.00    +0.033 C 
ATOM    100  N   GLY A  14     -13.942   0.627 -25.410  1.00  0.00    -0.194 N 
ATOM    101  CA  GLY A  14     -15.106  -0.205 -25.742  1.00  0.00    +0.201 C 
ATOM    102  C   GLY A  14     -16.400   0.545 -25.481  1.00  0.00    +0.264 C 
ATOM    103  O   GLY A  14     -16.405   1.668 -24.974  1.00  0.00    -0.271 OA
ATOM    104  N   ALA A  15     -17.506  -0.124 -25.754  1.00  0.00    -0.196 N 
ATOM    105  CA  ALA A  15     -18.754   0.171 -25.083  1.00  0.00    +0.173 C 
ATOM    106  C   ALA A  15     -18.665  -0.210 -23.588  1.00  0.00    +0.262 C 
ATOM    107  O   ALA A  15     -17.897  -1.098 -23.202  1.00  0.00    -0.271 OA
ATOM    108  CB  ALA A  15     -19.838  -0.600 -25.849  1.00  0.00    +0.033 C 
ATOM    109  N   SER A  16     -19.497   0.429 -22.764  1.00  0.00    -0.194 N 
ATOM    110  CA  SER A  16     -20.581  -0.309 -22.106  1.00  0.00    +0.205 C 
ATOM    111  C   SER A  16     -21.666  -0.668 -23.125  1.00  0.00    +0.264 C 
ATOM    112  O   SER A  16     -21.818   0.003 -24.142  1.00  0.00    -0.271 OA
ATOM    113  CB  SER A  16     -21.231   0.552 -21.017  1.00  0.00    +0.213 C 
ATOM    114  OG  SER A  16     -21.968   1.626 -21.583  1.00  0.00    -0.218 OA
ATOM    115  N   ASP A  17     -22.477  -1.680 -22.849  1.00  0.00    -0.196 N 
ATOM    116  CA  ASP A  17     -23.697  -1.916 -23.627  1.00  0.00    +0.184 C 
ATOM    117  C   ASP A  17     -24.883  -1.147 -23.052  1.00  0.00    +0.262 C 
ATOM    118  O   ASP A  17     -24.949  -0.892 -21.845  1.00  0.00    -0.271 OA
ATOM    119  CB  ASP A  17     -24.007  -3.409 -23.691  1.00  0.00    +0.145 C 
ATOM    120  CG  ASP A  17     -22.881  -4.207 -24.347  1.00  0.00    +0.367 C 
ATOM    121  OD1 ASP A  17     -22.351  -3.778 -25.398  1.00  0.00    -0.246 OA
ATOM    122  OD2 ASP A  17     -22.535  -5.291 -23.824  1.00  0.00    -0.246 OA
ATOM    123  N   TRP A  18     -25.845  -0.805 -23.907  1.00  0.00    -0.196 N 
ATOM    124  CA  TRP A  18     -27.108  -0.222 -23.463  1.00  0.00    +0.177 C 
ATOM    125  C   TRP A  18     -27.942  -1.245 -22.703  1.00  0.00    +0.262 C 
ATOM    126  O   TRP A  18     -27.963  -2.429 -23.052  1.00  0.00    -0.271 OA
ATOM    127  CB  TRP A  18     -27.896   0.308 -24.659  1.00  0.00    +0.059 C 
ATOM    128  CG  TRP A  18     -27.154   1.311 -25.475  1.00  0.00    +0.000 C 
ATOM    129  CD1 TRP A  18     -26.654   1.131 -26.720  1.00  0.00    +0.094 C 
ATOM    130  CD2 TRP A  18     -26.802   2.665 -25.087  1.00  0.00    +0.011 C 
ATOM    131  NE1 TRP A  18     -26.024   2.290 -27.130  1.00  0.00    -0.248 NA
ATOM    132  CE2 TRP A  18     -26.088   3.266 -26.159  1.00  0.00    +0.063 C 
ATOM    133  CE3 TRP A  18     -27.024   3.441 -23.933  1.00  0.00    +0.001 C 
ATOM    134  CZ2 TRP A  18     -25.619   4.583 -26.082  1.00  0.00    +0.072 C 
ATOM    135  CZ3 TRP A  18     -26.553   4.762 -23.850  1.00  0.00    -0.004 C 
ATOM    136  CH2 TRP A  18     -25.855   5.334 -24.919  1.00  0.00    -0.020 C 
ATOM    137  N   ILE A  19     -28.675  -0.782 -21.695  1.00  0.00    -0.196 N 
ATOM    138  CA  ILE A  19     -29.613  -1.621 -20.959  1.00  0.00    +0.173 C 
ATOM    139  C   ILE A  19     -31.030  -1.322 -21.434  1.00  0.00    +0.262 C 
ATOM    140  O   ILE A  19     -31.690  -0.404 -20.943  1.00  0.00    -0.271 OA
ATOM    141  CB  ILE A  19     -29.483  -1.453 -19.435  1.00  0.00    +0.029 C 
ATOM    142  CG1 ILE A  19     -28.014  -1.532 -18.981  1.00  0.00    +0.002 C 
ATOM    143  CG2 ILE A  19     -30.319  -2.539 -18.731  1.00  0.00    +0.002 C 
ATOM    144  CD1 ILE A  19     -27.824  -1.129 -17.518  1.00  0.00    +0.000 C 
ATOM    145  N   ARG A  20     -31.511  -2.154 -22.358  1.00  0.00    -0.196 N 
ATOM    146  CA  ARG A  20     -32.717  -2.938 -22.078  1.00  0.00    +0.173 C 
ATOM    147  C   ARG A  20     -32.404  -4.063 -21.092  1.00  0.00    +0.262 C 
ATOM    148  O   ARG A  20     -33.060  -4.188 -20.058  1.00  0.00    -0.271 OA
ATOM    149  CB  ARG A  20     -33.265  -3.528 -23.391  1.00  0.00    +0.033 C 
ATOM    150  CG  ARG A  20     -34.536  -4.369 -23.205  1.00  0.00    +0.029 C 
ATOM    151  CD  ARG A  20     -35.722  -3.515 -22.744  1.00  0.00    +0.129 C 
ATOM    152  NE  ARG A  20     -36.216  -3.901 -21.411  1.00  0.00    -0.234 NA
ATOM    153  CZ  ARG A  20     -37.347  -3.483 -20.873  1.00  0.00    +0.284 C 
ATOM    154  NH1 ARG A  20     -38.180  -2.718 -21.526  1.00  0.00    -0.104 N 
ATOM    155  NH2 ARG A  20     -37.660  -3.825 -19.657  1.00  0.00    -0.104 N 
ATOM    156  N   ARG A  21     -31.440  -4.909 -21.462  1.00  0.00    -0.194 N 
ATOM    157  CA  ARG A  21     -31.422  -6.327 -21.088  1.00  0.00    +0.198 C 
ATOM    158  C   ARG A  21     -30.422  -6.642 -19.985  1.00  0.00    +0.384 C 
ATOM    159  O   ARG A  21     -30.746  -7.463 -19.105  1.00  0.00    -0.244 OA
ATOM    160  CB  ARG A  21     -31.173  -7.149 -22.363  1.00  0.00    +0.035 C 
ATOM    161  CG  ARG A  21     -31.080  -8.650 -22.071  1.00  0.00    +0.029 C 
ATOM    162  CD  ARG A  21     -32.002  -9.485 -22.963  1.00  0.00    +0.129 C 
ATOM    163  NE  ARG A  21     -31.991 -10.885 -22.513  1.00  0.00    -0.234 NA
ATOM    164  CZ  ARG A  21     -32.233 -11.244 -21.266  1.00  0.00    +0.284 C 
ATOM    165  NH1 ARG A  21     -31.343 -11.945 -20.627  1.00  0.00    -0.104 N 
ATOM    166  NH2 ARG A  21     -33.315 -10.889 -20.632  1.00  0.00    -0.104 N 
ATOM    167  OXT ARG A  21     -29.305  -6.097 -20.007  1.00  0.00    -0.244 OA
ATOM    168  H   MET A   1       3.759  10.243 -26.561  1.00  0.00    +0.000 HD
ATOM    169  H   MET A   1       4.872   9.031 -26.297  1.00  0.00    +0.000 HD
ATOM    170  H   LYS A   2       3.533   7.758 -30.293  1.00  0.00    +0.000 HD
ATOM    171  H   LYS A   2      -1.928   3.573 -30.791  1.00  0.00    +0.000 HD
ATOM    172  H   LYS A   2      -1.354   2.566 -31.987  1.00  0.00    +0.000 HD
ATOM    173  H   LEU A   3       5.605   3.807 -28.980  1.00  0.00    +0.000 HD
ATOM    174  H   ALA A   4       4.930   1.864 -33.099  1.00  0.00    +0.000 HD
ATOM    175  H   PHE A   6       1.794  -4.639 -31.569  1.00  0.00    +0.000 HD
ATOM    176  H   ALA A   7      -2.141  -6.538 -33.939  1.00  0.00    +0.000 HD
ATOM    177  H   LEU A   8      -2.443  -3.790 -33.122  1.00  0.00    +0.000 HD
ATOM    178  H   LEU A   9      -4.245  -1.455 -36.569  1.00  0.00    +0.000 HD
ATOM    179  H   VAL A  10      -7.336   1.616 -34.661  1.00  0.00    +0.000 HD
ATOM    180  H   VAL A  11      -9.259  -1.828 -33.164  1.00  0.00    +0.000 HD
ATOM    181  H   PHE A  12     -11.200   0.577 -30.131  1.00  0.00    +0.000 HD
ATOM    182  H   ALA A  13     -13.857  -0.802 -28.424  1.00  0.00    +0.000 HD
ATOM    183  H   GLY A  14     -13.557   0.535 -24.509  1.00  0.00    +0.000 HD
ATOM    184  H   ALA A  15     -17.482  -0.839 -26.429  1.00  0.00    +0.000 HD
ATOM    185  H   SER A  16     -19.385   1.392 -22.598  1.00  0.00    +0.000 HD
ATOM    186  H   SER A  16     -22.675   1.274 -22.145  1.00  0.00    +0.000 HD
ATOM    187  H   ASP A  17     -22.256  -2.285 -22.104  1.00  0.00    +0.000 HD
ATOM    188  H   ASP A  17     -22.951  -5.586 -23.037  1.00  0.00    +0.000 HD
ATOM    189  H   TRP A  18     -25.700  -0.950 -24.869  1.00  0.00    +0.000 HD
ATOM    190  H   ILE A  19     -28.581   0.163 -21.435  1.00  0.00    +0.000 HD
ATOM    191  H   ARG A  20     -31.057  -2.242 -23.227  1.00  0.00    +0.000 HD
ATOM    192  H   ARG A  20     -37.974  -2.441 -22.449  1.00  0.00    +0.000 HD
ATOM    193  H   ARG A  20     -39.015  -2.419 -21.097  1.00  0.00    +0.000 HD
ATOM    194  H   ARG A  20     -37.055  -4.401 -19.137  1.00  0.00    +0.000 HD
ATOM    195  H   ARG A  20     -38.503  -3.508 -19.257  1.00  0.00    +0.000 HD
ATOM    196  H   ARG A  21     -30.704  -4.562 -22.016  1.00  0.00    +0.000 HD
ATOM    197  H   ARG A  21     -31.597  -7.854 -19.120  1.00  0.00    +0.000 HD
ATOM    198  H   ARG A  21     -30.517 -12.226 -21.083  1.00  0.00    +0.000 HD
ATOM    199  H   ARG A  21     -31.496 -12.195 -19.687  1.00  0.00    +0.000 HD
ATOM    200  H   ARG A  21     -34.004 -10.358 -21.093  1.00  0.00    +0.000 HD
ATOM    201  H   ARG A  21     -33.443 -11.152 -19.692  1.00  0.00    +0.000 HD
ENDROOT
TORSDOF 0
