REMARK  Name = /var/folders/yp/yjbh3p597675h2qddgqr02y00000gn/T/tmpddq9ozcr.pdb
REMARK     285 UNITARY VALUES FOR THE UNIT CELL AUTOMATICALLY SET
REMARK     285 BY MDANALYSIS PDBWRITER BECAUSE UNIT CELL INFORMATION
REMARK     285 WAS MISSING.
REMARK     285 PROTEIN DATA BANK CONVENTIONS REQUIRE THAT
REMARK     285 CRYST1 RECORD IS INCLUDED, BUT THE VALUES ON
REMARK     285 THIS RECORD ARE MEANINGLESS.
REMARK     285 UNITARY VALUES FOR THE UNIT CELL AUTOMATICALLY SET
REMARK     285 BY MDANALYSIS PDBWRITER BECAUSE UNIT CELL INFORMATION
REMARK     285 WAS MISSING.
REMARK     285 PROTEIN DATA BANK CONVENTIONS REQUIRE THAT
REMARK     285 CRYST1 RECORD IS INCLUDED, BUT THE VALUES ON
REMARK     285 THIS RECORD ARE MEANINGLESS.
REMARK                            x       y       z     vdW  Elec       q    Type
REMARK                         _______ _______ _______ _____ _____    ______ ____
ROOT
ATOM      1  N   MET A   1     -24.296  -5.025  -3.565  1.00  0.00    -0.123 NA
ATOM      2  CA  MET A   1     -25.295  -3.988  -3.807  1.00  0.00    +0.170 C 
ATOM      3  C   MET A   1     -24.802  -2.987  -4.839  1.00  0.00    +0.259 C 
ATOM      4  O   MET A   1     -23.638  -2.593  -4.820  1.00  0.00    -0.272 OA
ATOM      5  CB  MET A   1     -25.640  -3.257  -2.518  1.00  0.00    +0.040 C 
ATOM      6  CG  MET A   1     -25.704  -1.747  -2.672  1.00  0.00    +0.060 C 
ATOM      7  SD  MET A   1     -26.426  -0.928  -1.228  1.00  0.00    -0.139 S 
ATOM      8  CE  MET A   1     -27.603   0.161  -2.021  1.00  0.00    +0.069 C 
ATOM      9  N   LYS A   2     -25.688  -2.577  -5.743  1.00  0.00    -0.197 N 
ATOM     10  CA  LYS A   2     -27.116  -2.829  -5.574  1.00  0.00    +0.173 C 
ATOM     11  C   LYS A   2     -27.462  -4.267  -5.925  1.00  0.00    +0.262 C 
ATOM     12  O   LYS A   2     -27.975  -4.539  -7.010  1.00  0.00    -0.271 OA
ATOM     13  CB  LYS A   2     -27.938  -1.884  -6.436  1.00  0.00    +0.031 C 
ATOM     14  CG  LYS A   2     -29.397  -1.786  -6.022  1.00  0.00    +0.009 C 
ATOM     15  CD  LYS A   2     -29.559  -1.087  -4.683  1.00  0.00    +0.049 C 
ATOM     16  CE  LYS A   2     -29.036  -1.895  -3.585  1.00  0.00    +0.096 C 
ATOM     17  NZ  LYS A   2     -29.380  -1.754  -2.309  1.00  0.00    -0.151 NA
ATOM     18  N   LEU A   3     -27.184  -5.189  -5.008  1.00  0.00    -0.196 N 
ATOM     19  CA  LEU A   3     -28.016  -6.378  -4.848  1.00  0.00    +0.173 C 
ATOM     20  C   LEU A   3     -29.076  -6.158  -3.781  1.00  0.00    +0.262 C 
ATOM     21  O   LEU A   3     -30.167  -6.722  -3.859  1.00  0.00    -0.271 OA
ATOM     22  CB  LEU A   3     -27.167  -7.583  -4.478  1.00  0.00    +0.031 C 
ATOM     23  CG  LEU A   3     -26.556  -8.360  -5.646  1.00  0.00    +0.002 C 
ATOM     24  CD1 LEU A   3     -26.399  -9.830  -5.277  1.00  0.00    +0.000 C 
ATOM     25  CD2 LEU A   3     -25.083  -8.005  -5.813  1.00  0.00    +0.000 C 
ATOM     26  N   ALA A   4     -28.758  -5.338  -2.785  1.00  0.00    -0.196 N 
ATOM     27  CA  ALA A   4     -29.296  -5.530  -1.441  1.00  0.00    +0.171 C 
ATOM     28  C   ALA A   4     -30.814  -5.443  -1.442  1.00  0.00    +0.246 C 
ATOM     29  O   ALA A   4     -31.390  -4.678  -2.213  1.00  0.00    -0.273 OA
ATOM     30  CB  ALA A   4     -28.729  -4.498  -0.479  1.00  0.00    +0.033 C 
ATOM     31  N   PRO A   5     -31.457  -6.225  -0.579  1.00  0.00    -0.272 N 
ATOM     32  CA  PRO A   5     -32.864  -6.007  -0.258  1.00  0.00    +0.154 C 
ATOM     33  C   PRO A   5     -33.164  -6.185   1.222  1.00  0.00    +0.260 C 
ATOM     34  O   PRO A   5     -32.345  -6.723   1.965  1.00  0.00    -0.272 OA
ATOM     35  CB  PRO A   5     -33.593  -7.075  -1.056  1.00  0.00    +0.031 C 
ATOM     36  CG  PRO A   5     -32.615  -8.196  -1.147  1.00  0.00    +0.024 C 
ATOM     37  CD  PRO A   5     -31.273  -7.534  -1.246  1.00  0.00    +0.094 C 
ATOM     38  N   PHE A   6     -34.340  -5.735   1.651  1.00  0.00    -0.196 N 
ATOM     39  CA  PHE A   6     -34.746  -5.877   3.045  1.00  0.00    +0.177 C 
ATOM     40  C   PHE A   6     -35.416  -7.222   3.276  1.00  0.00    +0.262 C 
ATOM     41  O   PHE A   6     -36.263  -7.641   2.488  1.00  0.00    -0.271 OA
ATOM     42  CB  PHE A   6     -35.696  -4.760   3.449  1.00  0.00    +0.057 C 
ATOM     43  CG  PHE A   6     -35.388  -4.159   4.788  1.00  0.00    -0.020 A 
ATOM     44  CD1 PHE A   6     -35.869  -4.758   5.946  1.00  0.00    -0.004 A 
ATOM     45  CE1 PHE A   6     -35.583  -4.201   7.188  1.00  0.00    -0.000 A 
ATOM     46  CD2 PHE A   6     -34.621  -3.003   4.872  1.00  0.00    -0.004 A 
ATOM     47  CE2 PHE A   6     -34.336  -2.446   6.113  1.00  0.00    -0.000 A 
ATOM     48  CZ  PHE A   6     -34.816  -3.046   7.271  1.00  0.00    -0.000 A 
ATOM     49  N   ALA A   7     -35.039  -7.898   4.356  1.00  0.00    -0.195 N 
ATOM     50  CA  ALA A   7     -36.002  -8.640   5.165  1.00  0.00    +0.191 C 
ATOM     51  C   ALA A   7     -36.173  -8.002   6.534  1.00  0.00    +0.263 C 
ATOM     52  O   ALA A   7     -35.219  -7.468   7.096  1.00  0.00    -0.271 OA
ATOM     53  CB  ALA A   7     -35.567 -10.087   5.330  1.00  0.00    +0.105 C 
ATOM     54  N   LEU A   8     -37.388  -8.060   7.071  1.00  0.00    -0.196 N 
ATOM     55  CA  LEU A   8     -37.872  -9.269   7.730  1.00  0.00    +0.173 C 
ATOM     56  C   LEU A   8     -38.368 -10.281   6.710  1.00  0.00    +0.262 C 
ATOM     57  O   LEU A   8     -38.882  -9.906   5.657  1.00  0.00    -0.271 OA
ATOM     58  CB  LEU A   8     -38.993  -8.940   8.703  1.00  0.00    +0.031 C 
ATOM     59  CG  LEU A   8     -38.584  -8.187   9.971  1.00  0.00    +0.002 C 
ATOM     60  CD1 LEU A   8     -39.773  -8.054  10.914  1.00  0.00    +0.000 C 
ATOM     61  CD2 LEU A   8     -38.360  -6.710   9.668  1.00  0.00    +0.000 C 
ATOM     62  N   LEU A   9     -38.212 -11.565   7.021  1.00  0.00    -0.196 N 
ATOM     63  CA  LEU A   9     -36.926 -12.237   6.850  1.00  0.00    +0.171 C 
ATOM     64  C   LEU A   9     -36.565 -12.351   5.379  1.00  0.00    +0.246 C 
ATOM     65  O   LEU A   9     -37.379 -12.784   4.566  1.00  0.00    -0.273 OA
ATOM     66  CB  LEU A   9     -36.957 -13.623   7.474  1.00  0.00    +0.031 C 
ATOM     67  CG  LEU A   9     -36.916 -13.674   9.004  1.00  0.00    +0.002 C 
ATOM     68  CD1 LEU A   9     -36.478 -15.056   9.473  1.00  0.00    +0.000 C 
ATOM     69  CD2 LEU A   9     -38.330 -13.671   9.576  1.00  0.00    +0.000 C 
ATOM     70  N   VAL A  10     -35.341 -11.961   5.034  1.00  0.00    -0.271 N 
ATOM     71  CA  VAL A  10     -34.795 -12.253   3.712  1.00  0.00    +0.153 C 
ATOM     72  C   VAL A  10     -33.416 -12.876   3.851  1.00  0.00    +0.260 C 
ATOM     73  O   VAL A  10     -32.556 -12.346   4.550  1.00  0.00    -0.272 OA
ATOM     74  CB  VAL A  10     -34.702 -11.004   2.848  1.00  0.00    +0.029 C 
ATOM     75  CG1 VAL A  10     -35.156 -11.301   1.421  1.00  0.00    +0.002 C 
ATOM     76  CG2 VAL A  10     -35.598  -9.904   3.409  1.00  0.00    +0.024 C 
ATOM     77  N   VAL A  11     -33.204 -14.008   3.183  1.00  0.00    -0.196 N 
ATOM     78  CA  VAL A  11     -33.532 -15.307   3.765  1.00  0.00    +0.173 C 
ATOM     79  C   VAL A  11     -32.417 -15.748   4.699  1.00  0.00    +0.262 C 
ATOM     80  O   VAL A  11     -31.242 -15.505   4.428  1.00  0.00    -0.271 OA
ATOM     81  CB  VAL A  11     -33.751 -16.368   2.698  1.00  0.00    +0.029 C 
ATOM     82  CG1 VAL A  11     -34.810 -17.372   3.146  1.00  0.00    +0.002 C 
ATOM     83  CG2 VAL A  11     -34.231 -15.724   1.399  1.00  0.00    +0.002 C 
ATOM     84  N   PHE A  12     -32.782 -16.399   5.798  1.00  0.00    -0.196 N 
ATOM     85  CA  PHE A  12     -31.826 -17.191   6.568  1.00  0.00    +0.177 C 
ATOM     86  C   PHE A  12     -31.788 -18.625   6.067  1.00  0.00    +0.262 C 
ATOM     87  O   PHE A  12     -32.810 -19.309   6.055  1.00  0.00    -0.271 OA
ATOM     88  CB  PHE A  12     -32.178 -17.178   8.047  1.00  0.00    +0.057 C 
ATOM     89  CG  PHE A  12     -31.830 -15.895   8.742  1.00  0.00    -0.020 A 
ATOM     90  CD1 PHE A  12     -30.503 -15.500   8.850  1.00  0.00    -0.004 A 
ATOM     91  CE1 PHE A  12     -30.182 -14.311   9.494  1.00  0.00    -0.000 A 
ATOM     92  CD2 PHE A  12     -32.838 -15.102   9.279  1.00  0.00    -0.004 A 
ATOM     93  CE2 PHE A  12     -32.516 -13.913   9.924  1.00  0.00    -0.000 A 
ATOM     94  CZ  PHE A  12     -31.189 -13.517  10.031  1.00  0.00    -0.000 A 
ATOM     95  N   ALA A  13     -30.609 -19.081   5.654  1.00  0.00    -0.196 N 
ATOM     96  CA  ALA A  13     -29.891 -20.113   6.397  1.00  0.00    +0.173 C 
ATOM     97  C   ALA A  13     -29.399 -19.584   7.733  1.00  0.00    +0.262 C 
ATOM     98  O   ALA A  13     -28.866 -18.476   7.808  1.00  0.00    -0.271 OA
ATOM     99  CB  ALA A  13     -28.711 -20.633   5.592  1.00  0.00    +0.033 C 
ATOM    100  N   GLY A  14     -29.575 -20.371   8.789  1.00  0.00    -0.194 N 
ATOM    101  CA  GLY A  14     -28.465 -20.727   9.668  1.00  0.00    +0.201 C 
ATOM    102  C   GLY A  14     -27.649 -21.865   9.077  1.00  0.00    +0.264 C 
ATOM    103  O   GLY A  14     -27.881 -22.276   7.942  1.00  0.00    -0.271 OA
ATOM    104  N   ALA A  15     -26.693 -22.375   9.847  1.00  0.00    -0.196 N 
ATOM    105  CA  ALA A  15     -25.801 -23.424   9.359  1.00  0.00    +0.173 C 
ATOM    106  C   ALA A  15     -26.517 -24.762   9.292  1.00  0.00    +0.262 C 
ATOM    107  O   ALA A  15     -26.110 -25.654   8.547  1.00  0.00    -0.271 OA
ATOM    108  CB  ALA A  15     -24.576 -23.548  10.248  1.00  0.00    +0.033 C 
ATOM    109  N   SER A  16     -27.585 -24.907  10.072  1.00  0.00    -0.194 N 
ATOM    110  CA  SER A  16     -27.521 -25.675  11.312  1.00  0.00    +0.205 C 
ATOM    111  C   SER A  16     -27.072 -27.104  11.054  1.00  0.00    +0.264 C 
ATOM    112  O   SER A  16     -27.513 -27.733  10.093  1.00  0.00    -0.271 OA
ATOM    113  CB  SER A  16     -28.874 -25.687  12.006  1.00  0.00    +0.213 C 
ATOM    114  OG  SER A  16     -28.919 -26.694  13.001  1.00  0.00    -0.218 OA
ATOM    115  N   ASP A  17     -26.193 -27.617  11.910  1.00  0.00    -0.196 N 
ATOM    116  CA  ASP A  17     -26.443 -28.887  12.588  1.00  0.00    +0.184 C 
ATOM    117  C   ASP A  17     -27.490 -28.725  13.678  1.00  0.00    +0.262 C 
ATOM    118  O   ASP A  17     -27.190 -28.229  14.763  1.00  0.00    -0.271 OA
ATOM    119  CB  ASP A  17     -25.163 -29.441  13.190  1.00  0.00    +0.145 C 
ATOM    120  CG  ASP A  17     -25.390 -30.691  14.024  1.00  0.00    +0.367 C 
ATOM    121  OD1 ASP A  17     -26.476 -31.301  13.927  1.00  0.00    -0.246 OA
ATOM    122  OD2 ASP A  17     -24.473 -31.068  14.786  1.00  0.00    -0.246 OA
ATOM    123  N   TRP A  18     -28.719 -29.145  13.392  1.00  0.00    -0.196 N 
ATOM    124  CA  TRP A  18     -29.368 -30.189  14.180  1.00  0.00    +0.177 C 
ATOM    125  C   TRP A  18     -30.033 -31.214  13.278  1.00  0.00    +0.262 C 
ATOM    126  O   TRP A  18     -30.353 -30.921  12.127  1.00  0.00    -0.271 OA
ATOM    127  CB  TRP A  18     -30.403 -29.591  15.119  1.00  0.00    +0.054 C 
ATOM    128  CG  TRP A  18     -31.489 -30.544  15.521  1.00  0.00    -0.027 C 
ATOM    129  CD1 TRP A  18     -32.841 -30.328  15.458  1.00  0.00    +0.036 C 
ATOM    130  CD2 TRP A  18     -31.317 -31.862  16.046  1.00  0.00    +0.052 C 
ATOM    131  NE1 TRP A  18     -33.485 -31.457  15.922  1.00  0.00    -0.369 N 
ATOM    132  CE2 TRP A  18     -32.581 -32.412  16.290  1.00  0.00    +0.051 C 
ATOM    133  CE3 TRP A  18     -30.198 -32.651  16.341  1.00  0.00    +0.138 C 
ATOM    134  CZ2 TRP A  18     -32.694 -33.707  16.811  1.00  0.00    +0.019 C 
ATOM    135  CZ3 TRP A  18     -30.367 -33.939  16.861  1.00  0.00    -0.002 C 
ATOM    136  CH2 TRP A  18     -31.541 -34.451  17.089  1.00  0.00    -0.030 C 
ATOM    137  N   ILE A  19     -30.243 -32.421  13.799  1.00  0.00    -0.205 N 
ATOM    138  CA  ILE A  19     -31.568 -33.032  13.794  1.00  0.00    +0.106 C 
ATOM    139  C   ILE A  19     -32.119 -33.073  15.210  1.00  0.00    +0.105 C 
ATOM    140  O   ILE A  19     -31.363 -33.205  16.171  1.00  0.00    -0.370 OA
ATOM    141  CB  ILE A  19     -31.544 -34.438  13.217  1.00  0.00    +0.020 C 
ATOM    142  CG1 ILE A  19     -31.221 -34.403  11.724  1.00  0.00    +0.002 C 
ATOM    143  CG2 ILE A  19     -32.891 -35.125  13.429  1.00  0.00    +0.002 C 
ATOM    144  CD1 ILE A  19     -31.246 -35.767  11.056  1.00  0.00    +0.000 C 
ATOM    145  N   ARG A  20     -33.438 -32.962  15.340  1.00  0.00    +0.439 N 
ATOM    146  CA  ARG A  20     -34.144 -33.562  16.467  1.00  0.00    +0.065 C 
ATOM    147  C   ARG A  20     -34.317 -35.059  16.266  1.00  0.00    +0.232 C 
ATOM    148  O   ARG A  20     -34.481 -35.524  15.140  1.00  0.00    -0.275 OA
ATOM    149  CB  ARG A  20     -35.506 -32.917  16.661  1.00  0.00    -0.004 C 
ATOM    150  CG  ARG A  20     -36.288 -33.477  17.838  1.00  0.00    +0.025 C 
ATOM    151  CD  ARG A  20     -37.080 -32.395  18.556  1.00  0.00    +0.129 C 
ATOM    152  NE  ARG A  20     -38.356 -32.901  19.052  1.00  0.00    -0.234 NA
ATOM    153  CZ  ARG A  20     -39.538 -32.648  18.497  1.00  0.00    +0.284 C 
ATOM    154  NH1 ARG A  20     -39.634 -31.854  17.435  1.00  0.00    -0.104 N 
ATOM    155  NH2 ARG A  20     -40.636 -33.199  19.011  1.00  0.00    -0.104 N 
ATOM    156  N   ARG A  21     -34.277 -35.817  17.359  1.00  0.00    -0.157 N 
ATOM    157  CA  ARG A  21     -34.160 -37.269  17.275  1.00  0.00    +0.201 C 
ATOM    158  C   ARG A  21     -35.458 -37.946  17.684  1.00  0.00    +0.364 C 
ATOM    159  O   ARG A  21     -35.539 -39.173  17.720  1.00  0.00    -0.246 OA
ATOM    160  CB  ARG A  21     -33.027 -37.774  18.153  1.00  0.00    +0.035 C 
ATOM    161  CG  ARG A  21     -32.840 -36.976  19.434  1.00  0.00    +0.026 C 
ATOM    162  CD  ARG A  21     -33.988 -37.194  20.406  1.00  0.00    +0.116 C 
ATOM    163  NE  ARG A  21     -35.278 -36.884  19.796  1.00  0.00    -0.200 N 
ATOM    164  CZ  ARG A  21     -35.626 -35.692  19.320  1.00  0.00    +0.286 C 
ATOM    165  NH1 ARG A  21     -35.686 -34.634  20.124  1.00  0.00    -0.105 NA
ATOM    166  NH2 ARG A  21     -35.918 -35.557  18.030  1.00  0.00    -0.075 N 
ATOM    167  OXT ARG A  21     -36.443 -37.275  17.985  1.00  0.00    -0.316 OA
ATOM    168  H   MET A   1     -24.080  -5.501  -4.442  1.00  0.00    +0.000 HD
ATOM    169  H   MET A   1     -24.661  -5.700  -2.893  1.00  0.00    +0.000 HD
ATOM    170  H   LYS A   2     -25.374  -2.093  -6.541  1.00  0.00    +0.000 HD
ATOM    171  H   LYS A   2     -30.032  -1.064  -2.049  1.00  0.00    +0.000 HD
ATOM    172  H   LEU A   3     -26.401  -5.066  -4.424  1.00  0.00    +0.000 HD
ATOM    173  H   ALA A   4     -28.147  -4.587  -2.956  1.00  0.00    +0.000 HD
ATOM    174  H   PHE A   6     -34.950  -5.297   1.014  1.00  0.00    +0.000 HD
ATOM    175  H   ALA A   7     -34.090  -7.898   4.618  1.00  0.00    +0.000 HD
ATOM    176  H   LEU A   8     -37.975  -7.271   7.022  1.00  0.00    +0.000 HD
ATOM    177  H   LEU A   9     -38.979 -12.072   7.373  1.00  0.00    +0.000 HD
ATOM    178  H   VAL A  11     -32.818 -13.968   2.278  1.00  0.00    +0.000 HD
ATOM    179  H   PHE A  12     -33.718 -16.346   6.100  1.00  0.00    +0.000 HD
ATOM    180  H   ALA A  13     -30.212 -18.716   4.831  1.00  0.00    +0.000 HD
ATOM    181  H   GLY A  14     -30.474 -20.723   8.983  1.00  0.00    +0.000 HD
ATOM    182  H   ALA A  15     -26.583 -22.040  10.766  1.00  0.00    +0.000 HD
ATOM    183  H   SER A  16     -28.435 -24.487   9.809  1.00  0.00    +0.000 HD
ATOM    184  H   SER A  16     -28.779 -27.561  12.589  1.00  0.00    +0.000 HD
ATOM    185  H   ASP A  17     -25.356 -27.131  12.091  1.00  0.00    +0.000 HD
ATOM    186  H   ASP A  17     -27.140 -30.987  13.344  1.00  0.00    +0.000 HD
ATOM    187  H   TRP A  18     -29.201 -28.743  12.634  1.00  0.00    +0.000 HD
ATOM    188  H   ILE A  19     -29.488 -32.912  14.197  1.00  0.00    +0.000 HD
ATOM    189  H   ARG A  20     -38.825 -31.445  17.052  1.00  0.00    +0.000 HD
ATOM    190  H   ARG A  20     -40.515 -31.675  17.032  1.00  0.00    +0.000 HD
ATOM    191  H   ARG A  20     -40.570 -33.787  19.798  1.00  0.00    +0.000 HD
ATOM    192  H   ARG A  20     -41.515 -33.017  18.605  1.00  0.00    +0.000 HD
ATOM    193  H   ARG A  21     -35.939 -37.610  19.731  1.00  0.00    +0.000 HD
ATOM    194  H   ARG A  21     -35.471 -34.729  21.081  1.00  0.00    +0.000 HD
ENDROOT
TORSDOF 0
