REMARK  Name = /var/folders/yp/yjbh3p597675h2qddgqr02y00000gn/T/tmpsm5sob5c.pdb
REMARK     285 UNITARY VALUES FOR THE UNIT CELL AUTOMATICALLY SET
REMARK     285 BY MDANALYSIS PDBWRITER BECAUSE UNIT CELL INFORMATION
REMARK     285 WAS MISSING.
REMARK     285 PROTEIN DATA BANK CONVENTIONS REQUIRE THAT
REMARK     285 CRYST1 RECORD IS INCLUDED, BUT THE VALUES ON
REMARK     285 THIS RECORD ARE MEANINGLESS.
REMARK     285 UNITARY VALUES FOR THE UNIT CELL AUTOMATICALLY SET
REMARK     285 BY MDANALYSIS PDBWRITER BECAUSE UNIT CELL INFORMATION
REMARK     285 WAS MISSING.
REMARK     285 PROTEIN DATA BANK CONVENTIONS REQUIRE THAT
REMARK     285 CRYST1 RECORD IS INCLUDED, BUT THE VALUES ON
REMARK     285 THIS RECORD ARE MEANINGLESS.
REMARK                            x       y       z     vdW  Elec       q    Type
REMARK                         _______ _______ _______ _____ _____    ______ ____
ROOT
ATOM      1  N   MET A   1      -9.091  16.356 -17.063  1.00  0.00    -0.123 NA
ATOM      2  CA  MET A   1      -8.514  16.665 -15.758  1.00  0.00    +0.170 C 
ATOM      3  C   MET A   1      -9.562  16.558 -14.662  1.00  0.00    +0.259 C 
ATOM      4  O   MET A   1     -10.736  16.839 -14.890  1.00  0.00    -0.272 OA
ATOM      5  CB  MET A   1      -7.912  18.062 -15.749  1.00  0.00    +0.040 C 
ATOM      6  CG  MET A   1      -7.269  18.439 -14.424  1.00  0.00    +0.060 C 
ATOM      7  SD  MET A   1      -5.687  17.604 -14.152  1.00  0.00    -0.139 S 
ATOM      8  CE  MET A   1      -5.473  17.870 -12.394  1.00  0.00    +0.069 C 
ATOM      9  N   LYS A   2      -9.137  16.151 -13.469  1.00  0.00    -0.197 N 
ATOM     10  CA  LYS A   2     -10.039  16.079 -12.324  1.00  0.00    +0.173 C 
ATOM     11  C   LYS A   2      -9.580  17.002 -11.207  1.00  0.00    +0.262 C 
ATOM     12  O   LYS A   2      -8.405  17.003 -10.842  1.00  0.00    -0.271 OA
ATOM     13  CB  LYS A   2     -10.136  14.657 -11.799  1.00  0.00    +0.031 C 
ATOM     14  CG  LYS A   2     -10.884  13.709 -12.723  1.00  0.00    +0.009 C 
ATOM     15  CD  LYS A   2     -10.867  12.282 -12.202  1.00  0.00    +0.049 C 
ATOM     16  CE  LYS A   2      -9.503  11.784 -12.041  1.00  0.00    +0.096 C 
ATOM     17  NZ  LYS A   2      -9.157  10.758 -11.268  1.00  0.00    -0.151 NA
ATOM     18  N   LEU A   3     -10.504  17.788 -10.664  1.00  0.00    -0.196 N 
ATOM     19  CA  LEU A   3     -10.484  18.115  -9.241  1.00  0.00    +0.173 C 
ATOM     20  C   LEU A   3     -10.933  16.928  -8.407  1.00  0.00    +0.262 C 
ATOM     21  O   LEU A   3     -11.817  16.176  -8.816  1.00  0.00    -0.271 OA
ATOM     22  CB  LEU A   3     -11.380  19.309  -8.950  1.00  0.00    +0.031 C 
ATOM     23  CG  LEU A   3     -10.970  20.632  -9.597  1.00  0.00    +0.002 C 
ATOM     24  CD1 LEU A   3     -12.080  21.664  -9.438  1.00  0.00    +0.000 C 
ATOM     25  CD2 LEU A   3     -10.980  20.512 -11.117  1.00  0.00    +0.000 C 
ATOM     26  N   ALA A   4     -10.326  16.757  -7.237  1.00  0.00    -0.196 N 
ATOM     27  CA  ALA A   4     -11.052  16.273  -6.066  1.00  0.00    +0.171 C 
ATOM     28  C   ALA A   4     -12.300  17.102  -5.816  1.00  0.00    +0.246 C 
ATOM     29  O   ALA A   4     -12.363  18.265  -6.215  1.00  0.00    -0.273 OA
ATOM     30  CB  ALA A   4     -10.165  16.301  -4.831  1.00  0.00    +0.033 C 
ATOM     31  N   PRO A   5     -13.290  16.506  -5.158  1.00  0.00    -0.272 N 
ATOM     32  CA  PRO A   5     -14.026  17.199  -4.104  1.00  0.00    +0.154 C 
ATOM     33  C   PRO A   5     -13.125  17.702  -2.990  1.00  0.00    +0.260 C 
ATOM     34  O   PRO A   5     -12.044  17.157  -2.766  1.00  0.00    -0.272 OA
ATOM     35  CB  PRO A   5     -14.968  16.137  -3.555  1.00  0.00    +0.031 C 
ATOM     36  CG  PRO A   5     -14.239  14.856  -3.770  1.00  0.00    +0.024 C 
ATOM     37  CD  PRO A   5     -13.492  15.044  -5.057  1.00  0.00    +0.094 C 
ATOM     38  N   PHE A   6     -13.566  18.743  -2.290  1.00  0.00    -0.196 N 
ATOM     39  CA  PHE A   6     -12.788  19.305  -1.189  1.00  0.00    +0.177 C 
ATOM     40  C   PHE A   6     -12.643  18.293  -0.062  1.00  0.00    +0.262 C 
ATOM     41  O   PHE A   6     -13.638  17.827   0.490  1.00  0.00    -0.271 OA
ATOM     42  CB  PHE A   6     -13.439  20.570  -0.654  1.00  0.00    +0.057 C 
ATOM     43  CG  PHE A   6     -12.777  21.120   0.574  1.00  0.00    -0.024 C 
ATOM     44  CD1 PHE A   6     -11.749  22.048   0.451  1.00  0.00    -0.029 C 
ATOM     45  CE1 PHE A   6     -11.135  22.559   1.590  1.00  0.00    +0.037 C 
ATOM     46  CD2 PHE A   6     -13.190  20.703   1.834  1.00  0.00    -0.008 C 
ATOM     47  CE2 PHE A   6     -12.577  21.213   2.971  1.00  0.00    -0.009 C 
ATOM     48  CZ  PHE A   6     -11.549  22.141   2.849  1.00  0.00    +0.085 C 
ATOM     49  N   ALA A   7     -11.403  17.952   0.276  1.00  0.00    -0.196 N 
ATOM     50  CA  ALA A   7     -10.729  18.570   1.415  1.00  0.00    +0.171 C 
ATOM     51  C   ALA A   7     -10.445  20.041   1.150  1.00  0.00    +0.246 C 
ATOM     52  O   ALA A   7     -10.189  20.431   0.012  1.00  0.00    -0.273 OA
ATOM     53  CB  ALA A   7      -9.427  17.850   1.726  1.00  0.00    +0.033 C 
ATOM     54  N   LEU A   8     -10.491  20.854   2.200  1.00  0.00    -0.271 N 
ATOM     55  CA  LEU A   8      -9.558  21.968   2.339  1.00  0.00    +0.155 C 
ATOM     56  C   LEU A   8      -8.349  21.561   3.164  1.00  0.00    +0.260 C 
ATOM     57  O   LEU A   8      -8.406  20.591   3.919  1.00  0.00    -0.272 OA
ATOM     58  CB  LEU A   8     -10.238  23.163   2.989  1.00  0.00    +0.048 C 
ATOM     59  CG  LEU A   8     -11.102  24.028   2.070  1.00  0.00    +0.009 C 
ATOM     60  CD1 LEU A   8     -11.423  25.356   2.744  1.00  0.00    +0.001 C 
ATOM     61  CD2 LEU A   8     -12.516  23.466   1.977  1.00  0.00    +0.006 C 
ATOM     62  N   LEU A   9      -7.253  22.301   3.023  1.00  0.00    -0.196 N 
ATOM     63  CA  LEU A   9      -7.003  23.461   3.872  1.00  0.00    +0.173 C 
ATOM     64  C   LEU A   9      -8.141  24.462   3.771  1.00  0.00    +0.262 C 
ATOM     65  O   LEU A   9      -8.682  24.689   2.691  1.00  0.00    -0.271 OA
ATOM     66  CB  LEU A   9      -5.696  24.138   3.490  1.00  0.00    +0.031 C 
ATOM     67  CG  LEU A   9      -4.844  24.659   4.648  1.00  0.00    +0.002 C 
ATOM     68  CD1 LEU A   9      -4.138  25.948   4.247  1.00  0.00    +0.000 C 
ATOM     69  CD2 LEU A   9      -3.617  23.776   4.851  1.00  0.00    +0.000 C 
ATOM     70  N   VAL A  10      -8.510  25.062   4.901  1.00  0.00    -0.196 N 
ATOM     71  CA  VAL A  10      -8.824  26.487   4.938  1.00  0.00    +0.173 C 
ATOM     72  C   VAL A  10      -7.763  27.226   5.736  1.00  0.00    +0.262 C 
ATOM     73  O   VAL A  10      -7.478  26.868   6.879  1.00  0.00    -0.271 OA
ATOM     74  CB  VAL A  10     -10.192  26.751   5.545  1.00  0.00    +0.029 C 
ATOM     75  CG1 VAL A  10     -10.750  28.087   5.056  1.00  0.00    +0.002 C 
ATOM     76  CG2 VAL A  10     -11.175  25.655   5.140  1.00  0.00    +0.002 C 
ATOM     77  N   VAL A  11      -7.175  28.257   5.138  1.00  0.00    -0.196 N 
ATOM     78  CA  VAL A  11      -7.072  29.558   5.792  1.00  0.00    +0.173 C 
ATOM     79  C   VAL A  11      -8.461  30.088   6.104  1.00  0.00    +0.262 C 
ATOM     80  O   VAL A  11      -8.758  30.426   7.249  1.00  0.00    -0.271 OA
ATOM     81  CB  VAL A  11      -6.324  30.567   4.933  1.00  0.00    +0.029 C 
ATOM     82  CG1 VAL A  11      -6.019  31.833   5.731  1.00  0.00    +0.002 C 
ATOM     83  CG2 VAL A  11      -4.998  29.979   4.456  1.00  0.00    +0.002 C 
ATOM     84  N   PHE A  12      -9.314  30.164   5.086  1.00  0.00    -0.196 N 
ATOM     85  CA  PHE A  12     -10.010  31.408   4.767  1.00  0.00    +0.177 C 
ATOM     86  C   PHE A  12     -11.175  31.629   5.718  1.00  0.00    +0.262 C 
ATOM     87  O   PHE A  12     -11.407  32.749   6.171  1.00  0.00    -0.271 OA
ATOM     88  CB  PHE A  12     -10.519  31.392   3.336  1.00  0.00    +0.057 C 
ATOM     89  CG  PHE A  12      -9.446  31.597   2.308  1.00  0.00    -0.020 A 
ATOM     90  CD1 PHE A  12      -8.941  32.871   2.075  1.00  0.00    -0.004 A 
ATOM     91  CE1 PHE A  12      -7.946  33.062   1.123  1.00  0.00    -0.000 A 
ATOM     92  CD2 PHE A  12      -8.955  30.513   1.589  1.00  0.00    -0.004 A 
ATOM     93  CE2 PHE A  12      -7.961  30.704   0.638  1.00  0.00    -0.000 A 
ATOM     94  CZ  PHE A  12      -7.456  31.978   0.404  1.00  0.00    -0.000 A 
ATOM     95  N   ALA A  13     -11.909  30.562   6.022  1.00  0.00    -0.196 N 
ATOM     96  CA  ALA A  13     -13.335  30.507   5.710  1.00  0.00    +0.173 C 
ATOM     97  C   ALA A  13     -14.040  31.778   6.152  1.00  0.00    +0.262 C 
ATOM     98  O   ALA A  13     -13.848  32.241   7.276  1.00  0.00    -0.271 OA
ATOM     99  CB  ALA A  13     -13.986  29.306   6.376  1.00  0.00    +0.033 C 
ATOM    100  N   GLY A  14     -14.858  32.345   5.270  1.00  0.00    -0.194 N 
ATOM    101  CA  GLY A  14     -14.941  31.866   3.893  1.00  0.00    +0.201 C 
ATOM    102  C   GLY A  14     -16.130  30.935   3.715  1.00  0.00    +0.264 C 
ATOM    103  O   GLY A  14     -17.137  31.069   4.407  1.00  0.00    -0.271 OA
ATOM    104  N   ALA A  15     -16.014  29.990   2.786  1.00  0.00    -0.196 N 
ATOM    105  CA  ALA A  15     -17.053  29.780   1.782  1.00  0.00    +0.173 C 
ATOM    106  C   ALA A  15     -18.376  29.414   2.432  1.00  0.00    +0.262 C 
ATOM    107  O   ALA A  15     -18.398  28.845   3.523  1.00  0.00    -0.271 OA
ATOM    108  CB  ALA A  15     -16.646  28.687   0.807  1.00  0.00    +0.033 C 
ATOM    109  N   SER A  16     -19.478  29.739   1.766  1.00  0.00    -0.194 N 
ATOM    110  CA  SER A  16     -20.805  29.525   2.337  1.00  0.00    +0.205 C 
ATOM    111  C   SER A  16     -20.978  28.089   2.802  1.00  0.00    +0.264 C 
ATOM    112  O   SER A  16     -20.735  27.152   2.043  1.00  0.00    -0.271 OA
ATOM    113  CB  SER A  16     -21.886  29.864   1.325  1.00  0.00    +0.213 C 
ATOM    114  OG  SER A  16     -21.914  31.258   1.066  1.00  0.00    -0.218 OA
ATOM    115  N   ASP A  17     -21.399  27.913   4.052  1.00  0.00    -0.196 N 
ATOM    116  CA  ASP A  17     -22.378  26.883   4.387  1.00  0.00    +0.184 C 
ATOM    117  C   ASP A  17     -23.793  27.365   4.113  1.00  0.00    +0.262 C 
ATOM    118  O   ASP A  17     -24.649  27.323   4.995  1.00  0.00    -0.271 OA
ATOM    119  CB  ASP A  17     -22.255  26.472   5.846  1.00  0.00    +0.145 C 
ATOM    120  CG  ASP A  17     -22.074  24.974   6.028  1.00  0.00    +0.367 C 
ATOM    121  OD1 ASP A  17     -22.160  24.224   5.033  1.00  0.00    -0.246 OA
ATOM    122  OD2 ASP A  17     -21.845  24.544   7.180  1.00  0.00    -0.246 OA
ATOM    123  N   TRP A  18     -24.039  27.828   2.890  1.00  0.00    -0.196 N 
ATOM    124  CA  TRP A  18     -25.396  27.875   2.353  1.00  0.00    +0.177 C 
ATOM    125  C   TRP A  18     -25.413  27.476   0.885  1.00  0.00    +0.262 C 
ATOM    126  O   TRP A  18     -24.361  27.331   0.266  1.00  0.00    -0.271 OA
ATOM    127  CB  TRP A  18     -25.992  29.264   2.509  1.00  0.00    +0.055 C 
ATOM    128  CG  TRP A  18     -25.419  30.284   1.569  1.00  0.00    -0.016 C 
ATOM    129  CD1 TRP A  18     -24.324  31.080   1.781  1.00  0.00    +0.148 C 
ATOM    130  CD2 TRP A  18     -25.912  30.620   0.270  1.00  0.00    +0.011 A 
ATOM    131  NE1 TRP A  18     -24.139  31.875   0.669  1.00  0.00    -0.266 NA
ATOM    132  CE2 TRP A  18     -25.094  31.618  -0.272  1.00  0.00    +0.076 A 
ATOM    133  CE3 TRP A  18     -26.986  30.167  -0.506  1.00  0.00    +0.001 A 
ATOM    134  CZ2 TRP A  18     -25.362  32.127  -1.548  1.00  0.00    +0.019 A 
ATOM    135  CZ3 TRP A  18     -27.210  30.712  -1.776  1.00  0.00    +0.000 A 
ATOM    136  CH2 TRP A  18     -26.450  31.639  -2.281  1.00  0.00    +0.002 A 
ATOM    137  N   ILE A  19     -26.608  27.299   0.330  1.00  0.00    -0.196 N 
ATOM    138  CA  ILE A  19     -26.953  26.056  -0.352  1.00  0.00    +0.173 C 
ATOM    139  C   ILE A  19     -27.203  26.331  -1.825  1.00  0.00    +0.262 C 
ATOM    140  O   ILE A  19     -27.706  27.395  -2.186  1.00  0.00    -0.271 OA
ATOM    141  CB  ILE A  19     -28.180  25.395   0.255  1.00  0.00    +0.029 C 
ATOM    142  CG1 ILE A  19     -28.069  25.347   1.778  1.00  0.00    +0.002 C 
ATOM    143  CG2 ILE A  19     -28.343  23.977  -0.286  1.00  0.00    +0.002 C 
ATOM    144  CD1 ILE A  19     -29.342  24.897   2.475  1.00  0.00    +0.000 C 
ATOM    145  N   ARG A  20     -26.851  25.374  -2.680  1.00  0.00    -0.196 N 
ATOM    146  CA  ARG A  20     -27.363  25.350  -4.047  1.00  0.00    +0.173 C 
ATOM    147  C   ARG A  20     -28.860  25.090  -4.065  1.00  0.00    +0.262 C 
ATOM    148  O   ARG A  20     -29.658  26.025  -4.060  1.00  0.00    -0.271 OA
ATOM    149  CB  ARG A  20     -26.654  24.288  -4.872  1.00  0.00    +0.033 C 
ATOM    150  CG  ARG A  20     -27.187  22.881  -4.651  1.00  0.00    +0.027 C 
ATOM    151  CD  ARG A  20     -26.493  21.869  -5.546  1.00  0.00    +0.110 C 
ATOM    152  NE  ARG A  20     -25.161  21.534  -5.053  1.00  0.00    -0.236 NA
ATOM    153  CZ  ARG A  20     -24.029  21.738  -5.722  1.00  0.00    +0.284 C 
ATOM    154  NH1 ARG A  20     -24.041  22.362  -6.897  1.00  0.00    -0.104 N 
ATOM    155  NH2 ARG A  20     -22.877  21.313  -5.212  1.00  0.00    -0.104 N 
ATOM    156  N   ARG A  21     -29.244  23.817  -4.085  1.00  0.00    -0.194 N 
ATOM    157  CA  ARG A  21     -30.017  23.272  -5.199  1.00  0.00    +0.198 C 
ATOM    158  C   ARG A  21     -31.499  23.244  -4.869  1.00  0.00    +0.384 C 
ATOM    159  O   ARG A  21     -32.336  23.526  -5.727  1.00  0.00    -0.244 OA
ATOM    160  CB  ARG A  21     -29.547  21.868  -5.549  1.00  0.00    +0.037 C 
ATOM    161  CG  ARG A  21     -28.166  21.823  -6.179  1.00  0.00    +0.049 C 
ATOM    162  CD  ARG A  21     -27.464  20.502  -5.906  1.00  0.00    +0.129 C 
ATOM    163  NE  ARG A  21     -27.828  19.959  -4.599  1.00  0.00    -0.234 NA
ATOM    164  CZ  ARG A  21     -27.250  18.907  -4.027  1.00  0.00    +0.284 C 
ATOM    165  NH1 ARG A  21     -26.260  18.261  -4.638  1.00  0.00    -0.104 N 
ATOM    166  NH2 ARG A  21     -27.666  18.498  -2.832  1.00  0.00    -0.104 N 
ATOM    167  OXT ARG A  21     -31.884  22.941  -3.741  1.00  0.00    -0.244 OA
ATOM    168  H   MET A   1      -9.487  15.417 -17.046  1.00  0.00    +0.000 HD
ATOM    169  H   MET A   1      -8.364  16.405 -17.776  1.00  0.00    +0.000 HD
ATOM    170  H   LYS A   2      -8.193  15.893 -13.356  1.00  0.00    +0.000 HD
ATOM    171  H   LYS A   2      -9.843  10.276 -10.753  1.00  0.00    +0.000 HD
ATOM    172  H   LEU A   3     -11.217  18.158 -11.234  1.00  0.00    +0.000 HD
ATOM    173  H   ALA A   4      -9.366  16.961  -7.159  1.00  0.00    +0.000 HD
ATOM    174  H   PHE A   6     -14.435  19.143  -2.518  1.00  0.00    +0.000 HD
ATOM    175  H   ALA A   7     -10.929  17.270  -0.253  1.00  0.00    +0.000 HD
ATOM    176  H   LEU A   9      -6.596  22.062   2.330  1.00  0.00    +0.000 HD
ATOM    177  H   VAL A  10      -8.574  24.533   5.729  1.00  0.00    +0.000 HD
ATOM    178  H   VAL A  11      -6.801  28.140   4.235  1.00  0.00    +0.000 HD
ATOM    179  H   PHE A  12      -9.479  29.365   4.536  1.00  0.00    +0.000 HD
ATOM    180  H   ALA A  13     -11.482  29.794   6.466  1.00  0.00    +0.000 HD
ATOM    181  H   GLY A  14     -15.418  33.103   5.551  1.00  0.00    +0.000 HD
ATOM    182  H   ALA A  15     -15.211  29.421   2.776  1.00  0.00    +0.000 HD
ATOM    183  H   SER A  16     -19.398  30.134   0.867  1.00  0.00    +0.000 HD
ATOM    184  H   SER A  16     -21.059  31.536   0.703  1.00  0.00    +0.000 HD
ATOM    185  H   ASP A  17     -21.042  28.490   4.766  1.00  0.00    +0.000 HD
ATOM    186  H   ASP A  17     -21.789  25.140   7.901  1.00  0.00    +0.000 HD
ATOM    187  H   TRP A  18     -23.290  28.145   2.335  1.00  0.00    +0.000 HD
ATOM    188  H   ILE A  19     -27.274  28.023   0.379  1.00  0.00    +0.000 HD
ATOM    189  H   ARG A  20     -26.233  24.666  -2.384  1.00  0.00    +0.000 HD
ATOM    190  H   ARG A  20     -24.892  22.678  -7.278  1.00  0.00    +0.000 HD
ATOM    191  H   ARG A  20     -23.199  22.507  -7.385  1.00  0.00    +0.000 HD
ATOM    192  H   ARG A  20     -22.865  20.851  -4.343  1.00  0.00    +0.000 HD
ATOM    193  H   ARG A  20     -22.037  21.460  -5.704  1.00  0.00    +0.000 HD
ATOM    194  H   ARG A  21     -29.002  23.228  -3.334  1.00  0.00    +0.000 HD
ATOM    195  H   ARG A  21     -25.949  18.561  -5.523  1.00  0.00    +0.000 HD
ATOM    196  H   ARG A  21     -25.839  17.483  -4.206  1.00  0.00    +0.000 HD
ATOM    197  H   ARG A  21     -28.398  18.973  -2.377  1.00  0.00    +0.000 HD
ATOM    198  H   ARG A  21     -27.242  17.720  -2.403  1.00  0.00    +0.000 HD
ATOM    199  H   ARG A  21     -31.262  22.722  -3.075  1.00  0.00    +0.000 HD
ENDROOT
TORSDOF 0
