REMARK  Name = /var/folders/yp/yjbh3p597675h2qddgqr02y00000gn/T/tmpvmwqtw9w.pdb
REMARK     285 UNITARY VALUES FOR THE UNIT CELL AUTOMATICALLY SET
REMARK     285 BY MDANALYSIS PDBWRITER BECAUSE UNIT CELL INFORMATION
REMARK     285 WAS MISSING.
REMARK     285 PROTEIN DATA BANK CONVENTIONS REQUIRE THAT
REMARK     285 CRYST1 RECORD IS INCLUDED, BUT THE VALUES ON
REMARK     285 THIS RECORD ARE MEANINGLESS.
REMARK     285 UNITARY VALUES FOR THE UNIT CELL AUTOMATICALLY SET
REMARK     285 BY MDANALYSIS PDBWRITER BECAUSE UNIT CELL INFORMATION
REMARK     285 WAS MISSING.
REMARK     285 PROTEIN DATA BANK CONVENTIONS REQUIRE THAT
REMARK     285 CRYST1 RECORD IS INCLUDED, BUT THE VALUES ON
REMARK     285 THIS RECORD ARE MEANINGLESS.
REMARK                            x       y       z     vdW  Elec       q    Type
REMARK                         _______ _______ _______ _____ _____    ______ ____
ROOT
ATOM      1  N   MET A   1      17.208   1.999 -26.222  1.00  0.00    -0.123 NA
ATOM      2  CA  MET A   1      15.790   1.913 -26.561  1.00  0.00    +0.170 C 
ATOM      3  C   MET A   1      15.400   3.000 -27.550  1.00  0.00    +0.259 C 
ATOM      4  O   MET A   1      15.887   4.127 -27.463  1.00  0.00    -0.272 OA
ATOM      5  CB  MET A   1      14.927   2.029 -25.314  1.00  0.00    +0.040 C 
ATOM      6  CG  MET A   1      13.437   1.920 -25.591  1.00  0.00    +0.060 C 
ATOM      7  SD  MET A   1      12.549   1.022 -24.293  1.00  0.00    -0.139 S 
ATOM      8  CE  MET A   1      11.634  -0.159 -25.278  1.00  0.00    +0.069 C 
ATOM      9  N   LYS A   2      14.520   2.665 -28.488  1.00  0.00    -0.197 N 
ATOM     10  CA  LYS A   2      14.077   3.626 -29.493  1.00  0.00    +0.173 C 
ATOM     11  C   LYS A   2      13.172   4.682 -28.877  1.00  0.00    +0.262 C 
ATOM     12  O   LYS A   2      13.001   4.723 -27.661  1.00  0.00    -0.271 OA
ATOM     13  CB  LYS A   2      13.343   2.927 -30.625  1.00  0.00    +0.031 C 
ATOM     14  CG  LYS A   2      14.263   2.285 -31.650  1.00  0.00    +0.009 C 
ATOM     15  CD  LYS A   2      13.735   0.939 -32.118  1.00  0.00    +0.049 C 
ATOM     16  CE  LYS A   2      13.744  -0.048 -31.039  1.00  0.00    +0.096 C 
ATOM     17  NZ  LYS A   2      13.444  -1.335 -31.187  1.00  0.00    -0.151 NA
ATOM     18  N   LEU A   3      12.594   5.536 -29.718  1.00  0.00    -0.196 N 
ATOM     19  CA  LEU A   3      11.378   6.257 -29.353  1.00  0.00    +0.173 C 
ATOM     20  C   LEU A   3      10.167   5.343 -29.422  1.00  0.00    +0.262 C 
ATOM     21  O   LEU A   3      10.062   4.513 -30.325  1.00  0.00    -0.271 OA
ATOM     22  CB  LEU A   3      11.166   7.453 -30.267  1.00  0.00    +0.031 C 
ATOM     23  CG  LEU A   3      12.062   8.665 -30.010  1.00  0.00    +0.002 C 
ATOM     24  CD1 LEU A   3      13.174   8.730 -31.051  1.00  0.00    +0.000 C 
ATOM     25  CD2 LEU A   3      12.920   8.444 -28.769  1.00  0.00    +0.000 C 
ATOM     26  N   ALA A   4       9.251   5.492 -28.471  1.00  0.00    -0.196 N 
ATOM     27  CA  ALA A   4       7.828   5.564 -28.788  1.00  0.00    +0.171 C 
ATOM     28  C   ALA A   4       7.319   6.993 -28.698  1.00  0.00    +0.246 C 
ATOM     29  O   ALA A   4       7.800   7.772 -27.875  1.00  0.00    -0.273 OA
ATOM     30  CB  ALA A   4       7.021   4.677 -27.854  1.00  0.00    +0.033 C 
ATOM     31  N   PRO A   5       6.352   7.337 -29.542  1.00  0.00    -0.270 N 
ATOM     32  CA  PRO A   5       5.475   8.473 -29.273  1.00  0.00    +0.193 C 
ATOM     33  C   PRO A   5       4.748   8.353 -27.945  1.00  0.00    +0.264 C 
ATOM     34  O   PRO A   5       4.667   7.266 -27.373  1.00  0.00    -0.271 OA
ATOM     35  CB  PRO A   5       4.467   8.437 -30.410  1.00  0.00    +0.171 C 
ATOM     36  CG  PRO A   5       4.368   6.993 -30.767  1.00  0.00    +0.065 C 
ATOM     37  CD  PRO A   5       5.749   6.447 -30.560  1.00  0.00    +0.080 C 
ATOM     38  N   PHE A   6       4.218   9.468 -27.452  1.00  0.00    -0.196 N 
ATOM     39  CA  PHE A   6       2.963   9.449 -26.706  1.00  0.00    +0.178 C 
ATOM     40  C   PHE A   6       1.789   9.765 -27.620  1.00  0.00    +0.277 C 
ATOM     41  O   PHE A   6       0.743   9.123 -27.538  1.00  0.00    -0.270 OA
ATOM     42  CB  PHE A   6       2.997  10.447 -25.560  1.00  0.00    +0.057 C 
ATOM     43  CG  PHE A   6       2.232  11.709 -25.833  1.00  0.00    -0.020 A 
ATOM     44  CD1 PHE A   6       1.021  11.939 -25.191  1.00  0.00    -0.004 A 
ATOM     45  CE1 PHE A   6       0.312  13.109 -25.443  1.00  0.00    -0.000 A 
ATOM     46  CD2 PHE A   6       2.735  12.647 -26.726  1.00  0.00    -0.004 A 
ATOM     47  CE2 PHE A   6       2.028  13.817 -26.977  1.00  0.00    -0.000 A 
ATOM     48  CZ  PHE A   6       0.816  14.047 -26.337  1.00  0.00    -0.000 A 
ATOM     49  N   ALA A   7       1.962  10.756 -28.490  1.00  0.00    -0.116 N 
ATOM     50  CA  ALA A   7       2.104  10.494 -29.920  1.00  0.00    +0.158 C 
ATOM     51  C   ALA A   7       3.342   9.657 -30.202  1.00  0.00    +0.201 C 
ATOM     52  O   ALA A   7       4.223   9.541 -29.352  1.00  0.00    -0.328 OA
ATOM     53  CB  ALA A   7       2.185  11.796 -30.700  1.00  0.00    +0.029 C 
ATOM     54  N   LEU A   8       3.408   9.076 -31.395  1.00  0.00    -0.221 NA
ATOM     55  CA  LEU A   8       4.504   9.357 -32.318  1.00  0.00    +0.140 C 
ATOM     56  C   LEU A   8       4.311  10.705 -32.993  1.00  0.00    +0.256 C 
ATOM     57  O   LEU A   8       5.263  11.471 -33.142  1.00  0.00    -0.272 OA
ATOM     58  CB  LEU A   8       4.609   8.271 -33.376  1.00  0.00    +0.026 C 
ATOM     59  CG  LEU A   8       5.781   7.300 -33.230  1.00  0.00    +0.003 C 
ATOM     60  CD1 LEU A   8       5.975   6.507 -34.517  1.00  0.00    +0.000 C 
ATOM     61  CD2 LEU A   8       5.412   6.149 -32.301  1.00  0.00    +0.020 C 
ATOM     62  N   LEU A   9       3.079  10.999 -33.400  1.00  0.00    -0.197 N 
ATOM     63  CA  LEU A   9       2.063   9.962 -33.552  1.00  0.00    +0.173 C 
ATOM     64  C   LEU A   9       2.459   8.969 -34.631  1.00  0.00    +0.262 C 
ATOM     65  O   LEU A   9       2.761   9.355 -35.759  1.00  0.00    -0.271 OA
ATOM     66  CB  LEU A   9       0.716  10.577 -33.896  1.00  0.00    +0.031 C 
ATOM     67  CG  LEU A   9      -0.243  10.796 -32.725  1.00  0.00    +0.007 C 
ATOM     68  CD1 LEU A   9      -1.678  10.518 -33.158  1.00  0.00    +0.000 C 
ATOM     69  CD2 LEU A   9      -0.378  12.283 -32.414  1.00  0.00    +0.026 C 
ATOM     70  N   VAL A  10       2.460   7.683 -34.288  1.00  0.00    -0.196 N 
ATOM     71  CA  VAL A  10       2.719   6.634 -35.267  1.00  0.00    +0.173 C 
ATOM     72  C   VAL A  10       1.548   5.664 -35.304  1.00  0.00    +0.262 C 
ATOM     73  O   VAL A  10       1.136   5.142 -34.269  1.00  0.00    -0.271 OA
ATOM     74  CB  VAL A  10       3.998   5.873 -34.960  1.00  0.00    +0.029 C 
ATOM     75  CG1 VAL A  10       5.218   6.776 -35.131  1.00  0.00    +0.002 C 
ATOM     76  CG2 VAL A  10       3.985   5.370 -33.518  1.00  0.00    +0.002 C 
ATOM     77  N   VAL A  11       1.011   5.421 -36.496  1.00  0.00    -0.196 N 
ATOM     78  CA  VAL A  11      -0.155   6.163 -36.968  1.00  0.00    +0.173 C 
ATOM     79  C   VAL A  11      -1.332   5.917 -36.039  1.00  0.00    +0.262 C 
ATOM     80  O   VAL A  11      -2.045   6.849 -35.674  1.00  0.00    -0.271 OA
ATOM     81  CB  VAL A  11      -0.537   5.771 -38.387  1.00  0.00    +0.029 C 
ATOM     82  CG1 VAL A  11      -1.766   6.552 -38.849  1.00  0.00    +0.002 C 
ATOM     83  CG2 VAL A  11       0.607   6.078 -39.351  1.00  0.00    +0.002 C 
ATOM     84  N   PHE A  12      -1.537   4.660 -35.656  1.00  0.00    -0.196 N 
ATOM     85  CA  PHE A  12      -2.865   4.054 -35.709  1.00  0.00    +0.177 C 
ATOM     86  C   PHE A  12      -3.477   3.982 -34.319  1.00  0.00    +0.262 C 
ATOM     87  O   PHE A  12      -4.691   4.113 -34.164  1.00  0.00    -0.271 OA
ATOM     88  CB  PHE A  12      -2.803   2.661 -36.309  1.00  0.00    +0.057 C 
ATOM     89  CG  PHE A  12      -4.071   2.238 -36.991  1.00  0.00    -0.020 A 
ATOM     90  CD1 PHE A  12      -4.612   0.983 -36.736  1.00  0.00    -0.004 A 
ATOM     91  CE1 PHE A  12      -5.787   0.591 -37.368  1.00  0.00    -0.000 A 
ATOM     92  CD2 PHE A  12      -4.704   3.100 -37.878  1.00  0.00    -0.004 A 
ATOM     93  CE2 PHE A  12      -5.878   2.708 -38.510  1.00  0.00    -0.000 A 
ATOM     94  CZ  PHE A  12      -6.420   1.454 -38.255  1.00  0.00    -0.000 A 
ATOM     95  N   ALA A  13      -2.639   3.774 -33.307  1.00  0.00    -0.196 N 
ATOM     96  CA  ALA A  13      -3.008   2.930 -32.174  1.00  0.00    +0.173 C 
ATOM     97  C   ALA A  13      -4.169   3.533 -31.400  1.00  0.00    +0.262 C 
ATOM     98  O   ALA A  13      -4.858   2.830 -30.662  1.00  0.00    -0.271 OA
ATOM     99  CB  ALA A  13      -1.825   2.729 -31.243  1.00  0.00    +0.033 C 
ATOM    100  N   GLY A  14      -4.385   4.834 -31.566  1.00  0.00    -0.194 N 
ATOM    101  CA  GLY A  14      -4.793   5.686 -30.452  1.00  0.00    +0.201 C 
ATOM    102  C   GLY A  14      -5.589   6.883 -30.949  1.00  0.00    +0.264 C 
ATOM    103  O   GLY A  14      -5.763   7.059 -32.153  1.00  0.00    -0.271 OA
ATOM    104  N   ALA A  15      -6.071   7.704 -30.022  1.00  0.00    -0.196 N 
ATOM    105  CA  ALA A  15      -6.261   9.127 -30.292  1.00  0.00    +0.173 C 
ATOM    106  C   ALA A  15      -4.934   9.810 -30.574  1.00  0.00    +0.262 C 
ATOM    107  O   ALA A  15      -3.874   9.261 -30.279  1.00  0.00    -0.271 OA
ATOM    108  CB  ALA A  15      -6.946   9.811 -29.120  1.00  0.00    +0.033 C 
ATOM    109  N   SER A  16      -4.991  11.010 -31.145  1.00  0.00    -0.194 N 
ATOM    110  CA  SER A  16      -3.845  11.913 -31.135  1.00  0.00    +0.205 C 
ATOM    111  C   SER A  16      -3.514  12.368 -29.722  1.00  0.00    +0.264 C 
ATOM    112  O   SER A  16      -4.388  12.402 -28.857  1.00  0.00    -0.271 OA
ATOM    113  CB  SER A  16      -4.109  13.128 -32.011  1.00  0.00    +0.213 C 
ATOM    114  OG  SER A  16      -5.134  13.933 -31.455  1.00  0.00    -0.218 OA
ATOM    115  N   ASP A  17      -2.252  12.716 -29.488  1.00  0.00    -0.196 N 
ATOM    116  CA  ASP A  17      -1.876  13.441 -28.278  1.00  0.00    +0.184 C 
ATOM    117  C   ASP A  17      -2.118  14.933 -28.439  1.00  0.00    +0.262 C 
ATOM    118  O   ASP A  17      -1.506  15.745 -27.746  1.00  0.00    -0.271 OA
ATOM    119  CB  ASP A  17      -0.416  13.198 -27.931  1.00  0.00    +0.143 C 
ATOM    120  CG  ASP A  17      -0.089  11.727 -27.730  1.00  0.00    +0.342 C 
ATOM    121  OD1 ASP A  17      -0.873  11.013 -27.069  1.00  0.00    -0.248 OA
ATOM    122  OD2 ASP A  17       0.963  11.282 -28.238  1.00  0.00    -0.343 OA
ATOM    123  N   TRP A  18      -3.012  15.296 -29.354  1.00  0.00    -0.196 N 
ATOM    124  CA  TRP A  18      -3.158  16.691 -29.764  1.00  0.00    +0.177 C 
ATOM    125  C   TRP A  18      -4.626  17.080 -29.846  1.00  0.00    +0.262 C 
ATOM    126  O   TRP A  18      -5.499  16.217 -29.900  1.00  0.00    -0.271 OA
ATOM    127  CB  TRP A  18      -2.492  16.933 -31.108  1.00  0.00    +0.055 C 
ATOM    128  CG  TRP A  18      -2.913  15.975 -32.181  1.00  0.00    -0.016 C 
ATOM    129  CD1 TRP A  18      -4.080  15.998 -32.897  1.00  0.00    +0.148 C 
ATOM    130  CD2 TRP A  18      -2.171  14.850 -32.661  1.00  0.00    +0.011 A 
ATOM    131  NE1 TRP A  18      -4.071  14.939 -33.784  1.00  0.00    -0.266 NA
ATOM    132  CE2 TRP A  18      -2.917  14.220 -33.663  1.00  0.00    +0.076 A 
ATOM    133  CE3 TRP A  18      -0.924  14.303 -32.337  1.00  0.00    -0.003 A 
ATOM    134  CZ2 TRP A  18      -2.410  13.083 -34.303  1.00  0.00    +0.018 A 
ATOM    135  CZ3 TRP A  18      -0.465  13.164 -33.009  1.00  0.00    -0.022 A 
ATOM    136  CH2 TRP A  18      -1.156  12.576 -33.940  1.00  0.00    -0.003 A 
ATOM    137  N   ILE A  19      -4.896  18.382 -29.857  1.00  0.00    -0.196 N 
ATOM    138  CA  ILE A  19      -6.270  18.873 -29.801  1.00  0.00    +0.173 C 
ATOM    139  C   ILE A  19      -6.687  19.386 -31.171  1.00  0.00    +0.262 C 
ATOM    140  O   ILE A  19      -5.923  20.083 -31.836  1.00  0.00    -0.271 OA
ATOM    141  CB  ILE A  19      -6.438  19.980 -28.773  1.00  0.00    +0.029 C 
ATOM    142  CG1 ILE A  19      -5.230  20.038 -27.842  1.00  0.00    +0.002 C 
ATOM    143  CG2 ILE A  19      -7.704  19.753 -27.949  1.00  0.00    +0.002 C 
ATOM    144  CD1 ILE A  19      -5.412  20.968 -26.653  1.00  0.00    +0.000 C 
ATOM    145  N   ARG A  20      -7.901  19.041 -31.593  1.00  0.00    -0.196 N 
ATOM    146  CA  ARG A  20      -8.692  19.930 -32.440  1.00  0.00    +0.173 C 
ATOM    147  C   ARG A  20      -9.449  20.948 -31.602  1.00  0.00    +0.262 C 
ATOM    148  O   ARG A  20      -8.890  21.542 -30.683  1.00  0.00    -0.271 OA
ATOM    149  CB  ARG A  20      -9.674  19.138 -33.286  1.00  0.00    +0.033 C 
ATOM    150  CG  ARG A  20     -10.208  19.906 -34.486  1.00  0.00    +0.029 C 
ATOM    151  CD  ARG A  20     -11.342  19.163 -35.172  1.00  0.00    +0.129 C 
ATOM    152  NE  ARG A  20     -11.549  19.634 -36.538  1.00  0.00    -0.234 NA
ATOM    153  CZ  ARG A  20     -12.582  19.303 -37.309  1.00  0.00    +0.284 C 
ATOM    154  NH1 ARG A  20     -13.532  18.493 -36.854  1.00  0.00    -0.104 N 
ATOM    155  NH2 ARG A  20     -12.663  19.789 -38.543  1.00  0.00    -0.104 N 
ATOM    156  N   ARG A  21     -10.724  21.150 -31.920  1.00  0.00    -0.194 N 
ATOM    157  CA  ARG A  21     -11.238  22.491 -32.185  1.00  0.00    +0.198 C 
ATOM    158  C   ARG A  21     -11.925  23.062 -30.956  1.00  0.00    +0.384 C 
ATOM    159  O   ARG A  21     -11.627  22.662 -29.830  1.00  0.00    -0.244 OA
ATOM    160  CB  ARG A  21     -12.215  22.477 -33.350  1.00  0.00    +0.035 C 
ATOM    161  CG  ARG A  21     -11.566  22.744 -34.698  1.00  0.00    +0.029 C 
ATOM    162  CD  ARG A  21     -10.060  22.911 -34.575  1.00  0.00    +0.129 C 
ATOM    163  NE  ARG A  21      -9.698  23.684 -33.390  1.00  0.00    -0.234 NA
ATOM    164  CZ  ARG A  21      -8.646  23.436 -32.615  1.00  0.00    +0.284 C 
ATOM    165  NH1 ARG A  21      -7.565  22.839 -33.109  1.00  0.00    -0.104 N 
ATOM    166  NH2 ARG A  21      -8.678  23.788 -31.332  1.00  0.00    -0.104 N 
ATOM    167  OXT ARG A  21     -12.786  23.933 -31.068  1.00  0.00    -0.244 OA
ATOM    168  H   MET A   1      17.765   1.919 -27.072  1.00  0.00    +0.000 HD
ATOM    169  H   MET A   1      17.451   1.242 -25.583  1.00  0.00    +0.000 HD
ATOM    170  H   LYS A   2      14.160   1.750 -28.505  1.00  0.00    +0.000 HD
ATOM    171  H   LYS A   2      13.194  -1.683 -32.073  1.00  0.00    +0.000 HD
ATOM    172  H   LEU A   3      12.995   5.685 -30.605  1.00  0.00    +0.000 HD
ATOM    173  H   ALA A   4       9.539   5.555 -27.531  1.00  0.00    +0.000 HD
ATOM    174  H   PHE A   6       4.681  10.325 -27.593  1.00  0.00    +0.000 HD
ATOM    175  H   LEU A   9       2.848  11.934 -33.604  1.00  0.00    +0.000 HD
ATOM    176  H   VAL A  10       2.283   7.435 -33.352  1.00  0.00    +0.000 HD
ATOM    177  H   VAL A  11       1.408   4.728 -37.071  1.00  0.00    +0.000 HD
ATOM    178  H   PHE A  12      -0.776   4.126 -35.330  1.00  0.00    +0.000 HD
ATOM    179  H   ALA A  13      -1.751   4.198 -33.323  1.00  0.00    +0.000 HD
ATOM    180  H   GLY A  14      -4.268   5.232 -32.458  1.00  0.00    +0.000 HD
ATOM    181  H   ALA A  15      -6.306   7.346 -29.136  1.00  0.00    +0.000 HD
ATOM    182  H   SER A  16      -5.824  11.295 -31.585  1.00  0.00    +0.000 HD
ATOM    183  H   SER A  16      -5.953  13.417 -31.394  1.00  0.00    +0.000 HD
ATOM    184  H   ASP A  17      -1.557  12.480 -30.144  1.00  0.00    +0.000 HD
ATOM    185  H   TRP A  18      -3.587  14.611 -29.765  1.00  0.00    +0.000 HD
ATOM    186  H   ILE A  19      -4.155  19.028 -29.904  1.00  0.00    +0.000 HD
ATOM    187  H   ARG A  20      -8.272  18.169 -31.329  1.00  0.00    +0.000 HD
ATOM    188  H   ARG A  20     -13.475  18.132 -35.940  1.00  0.00    +0.000 HD
ATOM    189  H   ARG A  20     -14.293  18.254 -37.432  1.00  0.00    +0.000 HD
ATOM    190  H   ARG A  20     -11.961  20.390 -38.884  1.00  0.00    +0.000 HD
ATOM    191  H   ARG A  20     -13.426  19.549 -39.118  1.00  0.00    +0.000 HD
ATOM    192  H   ARG A  21     -11.334  20.380 -31.978  1.00  0.00    +0.000 HD
ATOM    193  H   ARG A  21      -6.792  22.661 -32.526  1.00  0.00    +0.000 HD
ATOM    194  H   ARG A  21      -7.538  22.577 -34.058  1.00  0.00    +0.000 HD
ATOM    195  H   ARG A  21      -7.903  23.608 -30.753  1.00  0.00    +0.000 HD
ATOM    196  H   ARG A  21      -9.477  24.228 -30.962  1.00  0.00    +0.000 HD
ATOM    197  H   ARG A  21     -13.025  24.249 -31.917  1.00  0.00    +0.000 HD
ENDROOT
TORSDOF 0
