REMARK  Name = /var/folders/yp/yjbh3p597675h2qddgqr02y00000gn/T/tmp0cn25bvd.pdb
REMARK     285 UNITARY VALUES FOR THE UNIT CELL AUTOMATICALLY SET
REMARK     285 BY MDANALYSIS PDBWRITER BECAUSE UNIT CELL INFORMATION
REMARK     285 WAS MISSING.
REMARK     285 PROTEIN DATA BANK CONVENTIONS REQUIRE THAT
REMARK     285 CRYST1 RECORD IS INCLUDED, BUT THE VALUES ON
REMARK     285 THIS RECORD ARE MEANINGLESS.
REMARK     285 UNITARY VALUES FOR THE UNIT CELL AUTOMATICALLY SET
REMARK     285 BY MDANALYSIS PDBWRITER BECAUSE UNIT CELL INFORMATION
REMARK     285 WAS MISSING.
REMARK     285 PROTEIN DATA BANK CONVENTIONS REQUIRE THAT
REMARK     285 CRYST1 RECORD IS INCLUDED, BUT THE VALUES ON
REMARK     285 THIS RECORD ARE MEANINGLESS.
REMARK                            x       y       z     vdW  Elec       q    Type
REMARK                         _______ _______ _______ _____ _____    ______ ____
ROOT
ATOM      1  N   MET A   1     -25.378  -5.530  42.398  1.00  0.00    -0.123 NA
ATOM      2  CA  MET A   1     -26.490  -5.835  41.502  1.00  0.00    +0.170 C 
ATOM      3  C   MET A   1     -26.021  -6.668  40.318  1.00  0.00    +0.259 C 
ATOM      4  O   MET A   1     -24.932  -6.448  39.792  1.00  0.00    -0.272 OA
ATOM      5  CB  MET A   1     -27.144  -4.560  40.996  1.00  0.00    +0.040 C 
ATOM      6  CG  MET A   1     -28.362  -4.805  40.120  1.00  0.00    +0.060 C 
ATOM      7  SD  MET A   1     -29.466  -6.069  40.795  1.00  0.00    -0.139 S 
ATOM      8  CE  MET A   1     -30.944  -5.764  39.833  1.00  0.00    +0.069 C 
ATOM      9  N   LYS A   2     -26.844  -7.625  39.901  1.00  0.00    -0.197 N 
ATOM     10  CA  LYS A   2     -26.600  -8.345  38.654  1.00  0.00    +0.173 C 
ATOM     11  C   LYS A   2     -26.710  -7.416  37.455  1.00  0.00    +0.262 C 
ATOM     12  O   LYS A   2     -27.558  -6.526  37.432  1.00  0.00    -0.271 OA
ATOM     13  CB  LYS A   2     -27.581  -9.496  38.494  1.00  0.00    +0.031 C 
ATOM     14  CG  LYS A   2     -27.146 -10.775  39.191  1.00  0.00    +0.009 C 
ATOM     15  CD  LYS A   2     -25.837 -11.306  38.631  1.00  0.00    +0.049 C 
ATOM     16  CE  LYS A   2     -24.684 -10.654  39.242  1.00  0.00    +0.096 C 
ATOM     17  NZ  LYS A   2     -23.416 -10.996  39.028  1.00  0.00    -0.151 NA
ATOM     18  N   LEU A   3     -25.851  -7.623  36.461  1.00  0.00    -0.196 N 
ATOM     19  CA  LEU A   3     -26.311  -7.948  35.114  1.00  0.00    +0.173 C 
ATOM     20  C   LEU A   3     -26.673  -9.420  35.006  1.00  0.00    +0.262 C 
ATOM     21  O   LEU A   3     -26.143 -10.249  35.745  1.00  0.00    -0.271 OA
ATOM     22  CB  LEU A   3     -25.245  -7.611  34.085  1.00  0.00    +0.031 C 
ATOM     23  CG  LEU A   3     -25.153  -6.142  33.667  1.00  0.00    +0.002 C 
ATOM     24  CD1 LEU A   3     -23.979  -5.936  32.717  1.00  0.00    +0.000 C 
ATOM     25  CD2 LEU A   3     -24.664  -5.284  34.829  1.00  0.00    +0.000 C 
ATOM     26  N   ALA A   4     -27.576  -9.746  34.086  1.00  0.00    -0.196 N 
ATOM     27  CA  ALA A   4     -27.414 -10.930  33.247  1.00  0.00    +0.171 C 
ATOM     28  C   ALA A   4     -26.198 -10.797  32.344  1.00  0.00    +0.246 C 
ATOM     29  O   ALA A   4     -25.710  -9.692  32.119  1.00  0.00    -0.273 OA
ATOM     30  CB  ALA A   4     -28.654 -11.164  32.399  1.00  0.00    +0.033 C 
ATOM     31  N   PRO A   5     -25.713 -11.923  31.828  1.00  0.00    -0.272 N 
ATOM     32  CA  PRO A   5     -24.883 -11.913  30.628  1.00  0.00    +0.154 C 
ATOM     33  C   PRO A   5     -25.693 -11.745  29.353  1.00  0.00    +0.260 C 
ATOM     34  O   PRO A   5     -26.921 -11.814  29.380  1.00  0.00    -0.272 OA
ATOM     35  CB  PRO A   5     -24.216 -13.278  30.630  1.00  0.00    +0.031 C 
ATOM     36  CG  PRO A   5     -25.198 -14.165  31.316  1.00  0.00    +0.024 C 
ATOM     37  CD  PRO A   5     -25.839 -13.298  32.360  1.00  0.00    +0.094 C 
ATOM     38  N   PHE A   6     -25.007 -11.525  28.234  1.00  0.00    -0.196 N 
ATOM     39  CA  PHE A   6     -25.614 -11.714  26.921  1.00  0.00    +0.181 C 
ATOM     40  C   PHE A   6     -25.599 -13.181  26.526  1.00  0.00    +0.262 C 
ATOM     41  O   PHE A   6     -25.769 -14.057  27.371  1.00  0.00    -0.271 OA
ATOM     42  CB  PHE A   6     -24.887 -10.896  25.866  1.00  0.00    +0.096 C 
ATOM     43  CG  PHE A   6     -25.187  -9.428  25.922  1.00  0.00    -0.025 C 
ATOM     44  CD1 PHE A   6     -26.283  -8.915  25.237  1.00  0.00    -0.031 C 
ATOM     45  CE1 PHE A   6     -26.560  -7.554  25.291  1.00  0.00    +0.022 C 
ATOM     46  CD2 PHE A   6     -24.369  -8.579  26.661  1.00  0.00    +0.000 C 
ATOM     47  CE2 PHE A   6     -24.646  -7.219  26.713  1.00  0.00    +0.000 C 
ATOM     48  CZ  PHE A   6     -25.742  -6.706  26.029  1.00  0.00    +0.004 C 
ATOM     49  N   ALA A   7     -25.395 -13.451  25.239  1.00  0.00    -0.202 N 
ATOM     50  CA  ALA A   7     -24.640 -12.541  24.383  1.00  0.00    +0.139 C 
ATOM     51  C   ALA A   7     -25.339 -11.197  24.260  1.00  0.00    +0.210 C 
ATOM     52  O   ALA A   7     -26.567 -11.129  24.291  1.00  0.00    -0.206 OA
ATOM     53  CB  ALA A   7     -24.445 -13.139  22.999  1.00  0.00    +0.028 C 
ATOM     54  N   LEU A   8     -24.560 -10.129  24.120  1.00  0.00    -0.183 NA
ATOM     55  CA  LEU A   8     -24.877  -9.075  23.161  1.00  0.00    +0.153 C 
ATOM     56  C   LEU A   8     -24.440  -9.470  21.760  1.00  0.00    +0.258 C 
ATOM     57  O   LEU A   8     -23.446 -10.174  21.592  1.00  0.00    -0.272 OA
ATOM     58  CB  LEU A   8     -24.207  -7.770  23.552  1.00  0.00    +0.027 C 
ATOM     59  CG  LEU A   8     -24.905  -6.955  24.643  1.00  0.00    +0.006 C 
ATOM     60  CD1 LEU A   8     -24.123  -5.678  24.931  1.00  0.00    +0.000 C 
ATOM     61  CD2 LEU A   8     -24.751  -7.633  26.000  1.00  0.00    +0.001 C 
ATOM     62  N   LEU A   9     -25.183  -9.018  20.753  1.00  0.00    -0.197 N 
ATOM     63  CA  LEU A   9     -24.591  -8.692  19.458  1.00  0.00    +0.173 C 
ATOM     64  C   LEU A   9     -23.818  -7.385  19.529  1.00  0.00    +0.262 C 
ATOM     65  O   LEU A   9     -24.326  -6.385  20.032  1.00  0.00    -0.271 OA
ATOM     66  CB  LEU A   9     -25.664  -8.590  18.386  1.00  0.00    +0.031 C 
ATOM     67  CG  LEU A   9     -25.666  -9.695  17.328  1.00  0.00    +0.002 C 
ATOM     68  CD1 LEU A   9     -27.042  -9.809  16.685  1.00  0.00    +0.000 C 
ATOM     69  CD2 LEU A   9     -25.603 -11.068  17.987  1.00  0.00    +0.000 C 
ATOM     70  N   VAL A  10     -22.589  -7.392  19.024  1.00  0.00    -0.196 N 
ATOM     71  CA  VAL A  10     -21.926  -6.155  18.621  1.00  0.00    +0.173 C 
ATOM     72  C   VAL A  10     -21.895  -6.059  17.104  1.00  0.00    +0.262 C 
ATOM     73  O   VAL A  10     -21.446  -6.981  16.427  1.00  0.00    -0.271 OA
ATOM     74  CB  VAL A  10     -20.507  -6.068  19.163  1.00  0.00    +0.029 C 
ATOM     75  CG1 VAL A  10     -19.893  -4.706  18.849  1.00  0.00    +0.002 C 
ATOM     76  CG2 VAL A  10     -20.505  -6.249  20.679  1.00  0.00    +0.002 C 
ATOM     77  N   VAL A  11     -22.376  -4.939  16.569  1.00  0.00    -0.196 N 
ATOM     78  CA  VAL A  11     -21.517  -3.785  16.321  1.00  0.00    +0.173 C 
ATOM     79  C   VAL A  11     -21.571  -2.839  17.510  1.00  0.00    +0.262 C 
ATOM     80  O   VAL A  11     -22.611  -2.703  18.153  1.00  0.00    -0.271 OA
ATOM     81  CB  VAL A  11     -21.918  -3.038  15.060  1.00  0.00    +0.029 C 
ATOM     82  CG1 VAL A  11     -22.316  -4.017  13.958  1.00  0.00    +0.002 C 
ATOM     83  CG2 VAL A  11     -23.113  -2.129  15.336  1.00  0.00    +0.002 C 
ATOM     84  N   PHE A  12     -20.451  -2.184  17.803  1.00  0.00    -0.196 N 
ATOM     85  CA  PHE A  12     -20.449  -0.740  18.013  1.00  0.00    +0.177 C 
ATOM     86  C   PHE A  12     -19.672  -0.037  16.911  1.00  0.00    +0.262 C 
ATOM     87  O   PHE A  12     -20.226   0.781  16.180  1.00  0.00    -0.271 OA
ATOM     88  CB  PHE A  12     -19.845  -0.389  19.362  1.00  0.00    +0.057 C 
ATOM     89  CG  PHE A  12     -19.849   1.079  19.667  1.00  0.00    -0.020 A 
ATOM     90  CD1 PHE A  12     -20.940   1.861  19.308  1.00  0.00    -0.004 A 
ATOM     91  CE1 PHE A  12     -20.945   3.222  19.589  1.00  0.00    -0.000 A 
ATOM     92  CD2 PHE A  12     -18.760   1.658  20.309  1.00  0.00    -0.004 A 
ATOM     93  CE2 PHE A  12     -18.764   3.020  20.592  1.00  0.00    -0.000 A 
ATOM     94  CZ  PHE A  12     -19.857   3.801  20.233  1.00  0.00    -0.000 A 
ATOM     95  N   ALA A  13     -18.386  -0.356  16.793  1.00  0.00    -0.196 N 
ATOM     96  CA  ALA A  13     -17.334   0.626  17.032  1.00  0.00    +0.173 C 
ATOM     97  C   ALA A  13     -17.430   1.782  16.051  1.00  0.00    +0.262 C 
ATOM     98  O   ALA A  13     -17.619   1.570  14.853  1.00  0.00    -0.271 OA
ATOM     99  CB  ALA A  13     -15.960  -0.017  16.925  1.00  0.00    +0.033 C 
ATOM    100  N   GLY A  14     -17.302   3.007  16.554  1.00  0.00    -0.194 N 
ATOM    101  CA  GLY A  14     -17.328   4.187  15.697  1.00  0.00    +0.201 C 
ATOM    102  C   GLY A  14     -16.783   5.403  16.432  1.00  0.00    +0.264 C 
ATOM    103  O   GLY A  14     -16.176   5.270  17.493  1.00  0.00    -0.271 OA
ATOM    104  N   ALA A  15     -17.000   6.587  15.868  1.00  0.00    -0.196 N 
ATOM    105  CA  ALA A  15     -16.529   7.821  16.488  1.00  0.00    +0.173 C 
ATOM    106  C   ALA A  15     -17.096   7.981  17.889  1.00  0.00    +0.262 C 
ATOM    107  O   ALA A  15     -18.234   7.593  18.151  1.00  0.00    -0.271 OA
ATOM    108  CB  ALA A  15     -16.911   9.028  15.646  1.00  0.00    +0.033 C 
ATOM    109  N   SER A  16     -16.303   8.553  18.793  1.00  0.00    -0.194 N 
ATOM    110  CA  SER A  16     -16.840   9.436  19.823  1.00  0.00    +0.205 C 
ATOM    111  C   SER A  16     -17.169  10.808  19.257  1.00  0.00    +0.264 C 
ATOM    112  O   SER A  16     -17.977  11.542  19.826  1.00  0.00    -0.271 OA
ATOM    113  CB  SER A  16     -15.852   9.585  20.969  1.00  0.00    +0.213 C 
ATOM    114  OG  SER A  16     -16.033   8.553  21.924  1.00  0.00    -0.218 OA
ATOM    115  N   ASP A  17     -16.542  11.156  18.136  1.00  0.00    -0.196 N 
ATOM    116  CA  ASP A  17     -15.819  12.421  18.031  1.00  0.00    +0.184 C 
ATOM    117  C   ASP A  17     -16.550  13.394  17.121  1.00  0.00    +0.262 C 
ATOM    118  O   ASP A  17     -17.190  12.982  16.154  1.00  0.00    -0.271 OA
ATOM    119  CB  ASP A  17     -14.409  12.197  17.509  1.00  0.00    +0.145 C 
ATOM    120  CG  ASP A  17     -13.439  11.742  18.586  1.00  0.00    +0.367 C 
ATOM    121  OD1 ASP A  17     -13.691  12.002  19.783  1.00  0.00    -0.246 OA
ATOM    122  OD2 ASP A  17     -12.416  11.117  18.235  1.00  0.00    -0.246 OA
ATOM    123  N   TRP A  18     -16.457  14.683  17.429  1.00  0.00    -0.196 N 
ATOM    124  CA  TRP A  18     -16.712  15.724  16.435  1.00  0.00    +0.177 C 
ATOM    125  C   TRP A  18     -15.490  16.608  16.251  1.00  0.00    +0.262 C 
ATOM    126  O   TRP A  18     -14.638  16.690  17.133  1.00  0.00    -0.271 OA
ATOM    127  CB  TRP A  18     -17.901  16.578  16.841  1.00  0.00    +0.055 C 
ATOM    128  CG  TRP A  18     -19.217  15.859  16.793  1.00  0.00    -0.016 C 
ATOM    129  CD1 TRP A  18     -19.754  15.052  17.761  1.00  0.00    +0.148 C 
ATOM    130  CD2 TRP A  18     -20.163  15.882  15.720  1.00  0.00    +0.011 A 
ATOM    131  NE1 TRP A  18     -20.976  14.591  17.318  1.00  0.00    -0.266 NA
ATOM    132  CE2 TRP A  18     -21.254  15.080  16.075  1.00  0.00    +0.076 A 
ATOM    133  CE3 TRP A  18     -20.197  16.513  14.471  1.00  0.00    +0.001 A 
ATOM    134  CZ2 TRP A  18     -22.331  14.932  15.192  1.00  0.00    +0.019 A 
ATOM    135  CZ3 TRP A  18     -21.298  16.330  13.625  1.00  0.00    +0.000 A 
ATOM    136  CH2 TRP A  18     -22.315  15.586  13.953  1.00  0.00    +0.002 A 
ATOM    137  N   ILE A  19     -15.404  17.273  15.101  1.00  0.00    -0.196 N 
ATOM    138  CA  ILE A  19     -14.557  18.454  14.970  1.00  0.00    +0.173 C 
ATOM    139  C   ILE A  19     -15.377  19.614  14.425  1.00  0.00    +0.262 C 
ATOM    140  O   ILE A  19     -16.140  19.448  13.473  1.00  0.00    -0.271 OA
ATOM    141  CB  ILE A  19     -13.368  18.202  14.057  1.00  0.00    +0.029 C 
ATOM    142  CG1 ILE A  19     -12.831  16.786  14.249  1.00  0.00    +0.002 C 
ATOM    143  CG2 ILE A  19     -12.256  19.209  14.343  1.00  0.00    +0.002 C 
ATOM    144  CD1 ILE A  19     -11.482  16.541  13.594  1.00  0.00    +0.000 C 
ATOM    145  N   ARG A  20     -15.222  20.790  15.027  1.00  0.00    -0.196 N 
ATOM    146  CA  ARG A  20     -16.272  21.360  15.864  1.00  0.00    +0.173 C 
ATOM    147  C   ARG A  20     -16.804  22.652  15.264  1.00  0.00    +0.262 C 
ATOM    148  O   ARG A  20     -17.522  22.629  14.266  1.00  0.00    -0.271 OA
ATOM    149  CB  ARG A  20     -15.761  21.627  17.270  1.00  0.00    +0.033 C 
ATOM    150  CG  ARG A  20     -16.735  22.404  18.141  1.00  0.00    +0.029 C 
ATOM    151  CD  ARG A  20     -16.551  22.087  19.616  1.00  0.00    +0.129 C 
ATOM    152  NE  ARG A  20     -16.750  20.669  19.892  1.00  0.00    -0.234 NA
ATOM    153  CZ  ARG A  20     -17.786  20.164  20.557  1.00  0.00    +0.284 C 
ATOM    154  NH1 ARG A  20     -18.688  20.964  21.117  1.00  0.00    -0.104 N 
ATOM    155  NH2 ARG A  20     -17.921  18.844  20.659  1.00  0.00    -0.104 N 
ATOM    156  N   ARG A  21     -16.455  23.781  15.874  1.00  0.00    -0.194 N 
ATOM    157  CA  ARG A  21     -16.883  25.083  15.369  1.00  0.00    +0.198 C 
ATOM    158  C   ARG A  21     -15.691  25.910  14.916  1.00  0.00    +0.384 C 
ATOM    159  O   ARG A  21     -15.829  26.799  14.078  1.00  0.00    -0.244 OA
ATOM    160  CB  ARG A  21     -17.658  25.847  16.430  1.00  0.00    +0.035 C 
ATOM    161  CG  ARG A  21     -18.285  27.135  15.924  1.00  0.00    +0.029 C 
ATOM    162  CD  ARG A  21     -19.585  26.877  15.182  1.00  0.00    +0.129 C 
ATOM    163  NE  ARG A  21     -20.106  28.094  14.567  1.00  0.00    -0.234 NA
ATOM    164  CZ  ARG A  21     -21.394  28.420  14.501  1.00  0.00    +0.284 C 
ATOM    165  NH1 ARG A  21     -22.322  27.623  15.024  1.00  0.00    -0.104 N 
ATOM    166  NH2 ARG A  21     -21.755  29.555  13.910  1.00  0.00    -0.104 N 
ATOM    167  OXT ARG A  21     -14.571  25.701  15.383  1.00  0.00    -0.244 OA
ATOM    168  H   MET A   1     -25.717  -4.972  43.182  1.00  0.00    +0.000 HD
ATOM    169  H   MET A   1     -24.666  -5.005  41.890  1.00  0.00    +0.000 HD
ATOM    170  H   LYS A   2     -27.633  -7.853  40.443  1.00  0.00    +0.000 HD
ATOM    171  H   LYS A   2     -23.202 -11.739  38.419  1.00  0.00    +0.000 HD
ATOM    172  H   LEU A   3     -24.884  -7.555  36.637  1.00  0.00    +0.000 HD
ATOM    173  H   ALA A   4     -28.370  -9.177  33.968  1.00  0.00    +0.000 HD
ATOM    174  H   PHE A   6     -24.070 -11.229  28.294  1.00  0.00    +0.000 HD
ATOM    175  H   ALA A   7     -25.761 -14.281  24.856  1.00  0.00    +0.000 HD
ATOM    176  H   ALA A   7     -26.842 -10.203  24.199  1.00  0.00    +0.000 HD
ATOM    177  H   LEU A   8     -23.635 -10.478  23.870  1.00  0.00    +0.000 HD
ATOM    178  H   LEU A   9     -26.152  -8.900  20.884  1.00  0.00    +0.000 HD
ATOM    179  H   VAL A  10     -22.114  -8.248  18.919  1.00  0.00    +0.000 HD
ATOM    180  H   VAL A  11     -23.331  -4.888  16.335  1.00  0.00    +0.000 HD
ATOM    181  H   PHE A  12     -19.606  -2.684  17.880  1.00  0.00    +0.000 HD
ATOM    182  H   ALA A  13     -18.138  -1.274  16.538  1.00  0.00    +0.000 HD
ATOM    183  H   GLY A  14     -17.186   3.119  17.524  1.00  0.00    +0.000 HD
ATOM    184  H   ALA A  15     -17.489   6.632  15.015  1.00  0.00    +0.000 HD
ATOM    185  H   SER A  16     -15.335   8.376  18.765  1.00  0.00    +0.000 HD
ATOM    186  H   SER A  16     -16.932   8.602  22.287  1.00  0.00    +0.000 HD
ATOM    187  H   ASP A  17     -16.567  10.549  17.361  1.00  0.00    +0.000 HD
ATOM    188  H   ASP A  17     -12.262  10.942  17.328  1.00  0.00    +0.000 HD
ATOM    189  H   TRP A  18     -16.210  14.943  18.346  1.00  0.00    +0.000 HD
ATOM    190  H   ILE A  19     -15.921  16.961  14.324  1.00  0.00    +0.000 HD
ATOM    191  H   ARG A  20     -14.380  21.286  14.905  1.00  0.00    +0.000 HD
ATOM    192  H   ARG A  20     -19.451  20.580  21.607  1.00  0.00    +0.000 HD
ATOM    193  H   ARG A  20     -18.592  21.941  21.042  1.00  0.00    +0.000 HD
ATOM    194  H   ARG A  20     -18.686  18.464  21.150  1.00  0.00    +0.000 HD
ATOM    195  H   ARG A  20     -17.256  18.248  20.245  1.00  0.00    +0.000 HD
ATOM    196  H   ARG A  21     -15.896  23.739  16.683  1.00  0.00    +0.000 HD
ATOM    197  H   ARG A  21     -23.272  27.874  14.970  1.00  0.00    +0.000 HD
ATOM    198  H   ARG A  21     -22.058  26.783  15.464  1.00  0.00    +0.000 HD
ATOM    199  H   ARG A  21     -22.707  29.802  13.858  1.00  0.00    +0.000 HD
ATOM    200  H   ARG A  21     -21.071  30.149  13.523  1.00  0.00    +0.000 HD
ATOM    201  H   ARG A  21     -14.449  25.028  16.022  1.00  0.00    +0.000 HD
ENDROOT
TORSDOF 0
