REMARK  Name = /var/folders/yp/yjbh3p597675h2qddgqr02y00000gn/T/tmp10k8o4s_.pdb
REMARK     285 UNITARY VALUES FOR THE UNIT CELL AUTOMATICALLY SET
REMARK     285 BY MDANALYSIS PDBWRITER BECAUSE UNIT CELL INFORMATION
REMARK     285 WAS MISSING.
REMARK     285 PROTEIN DATA BANK CONVENTIONS REQUIRE THAT
REMARK     285 CRYST1 RECORD IS INCLUDED, BUT THE VALUES ON
REMARK     285 THIS RECORD ARE MEANINGLESS.
REMARK     285 UNITARY VALUES FOR THE UNIT CELL AUTOMATICALLY SET
REMARK     285 BY MDANALYSIS PDBWRITER BECAUSE UNIT CELL INFORMATION
REMARK     285 WAS MISSING.
REMARK     285 PROTEIN DATA BANK CONVENTIONS REQUIRE THAT
REMARK     285 CRYST1 RECORD IS INCLUDED, BUT THE VALUES ON
REMARK     285 THIS RECORD ARE MEANINGLESS.
REMARK                            x       y       z     vdW  Elec       q    Type
REMARK                         _______ _______ _______ _____ _____    ______ ____
ROOT
ATOM      1  N   MET A   1       8.132  20.186   7.221  1.00  0.00    -0.123 NA
ATOM      2  CA  MET A   1       7.848  21.455   6.555  1.00  0.00    +0.170 C 
ATOM      3  C   MET A   1       7.553  22.547   7.570  1.00  0.00    +0.259 C 
ATOM      4  O   MET A   1       6.885  22.304   8.574  1.00  0.00    -0.272 OA
ATOM      5  CB  MET A   1       6.672  21.316   5.603  1.00  0.00    +0.040 C 
ATOM      6  CG  MET A   1       5.957  22.628   5.320  1.00  0.00    +0.060 C 
ATOM      7  SD  MET A   1       7.096  24.029   5.185  1.00  0.00    -0.139 S 
ATOM      8  CE  MET A   1       6.718  24.602   3.532  1.00  0.00    +0.069 C 
ATOM      9  N   LYS A   2       8.049  23.753   7.309  1.00  0.00    -0.197 N 
ATOM     10  CA  LYS A   2       8.521  24.628   8.379  1.00  0.00    +0.173 C 
ATOM     11  C   LYS A   2       7.356  25.229   9.148  1.00  0.00    +0.262 C 
ATOM     12  O   LYS A   2       6.328  25.566   8.561  1.00  0.00    -0.271 OA
ATOM     13  CB  LYS A   2       9.390  25.743   7.822  1.00  0.00    +0.031 C 
ATOM     14  CG  LYS A   2       8.702  27.099   7.786  1.00  0.00    +0.009 C 
ATOM     15  CD  LYS A   2       9.663  28.210   7.399  1.00  0.00    +0.049 C 
ATOM     16  CE  LYS A   2      10.349  27.915   6.143  1.00  0.00    +0.096 C 
ATOM     17  NZ  LYS A   2      10.365  28.717   5.082  1.00  0.00    -0.151 NA
ATOM     18  N   LEU A   3       7.513  25.365  10.461  1.00  0.00    -0.196 N 
ATOM     19  CA  LEU A   3       6.401  25.165  11.386  1.00  0.00    +0.173 C 
ATOM     20  C   LEU A   3       5.408  26.311  11.291  1.00  0.00    +0.262 C 
ATOM     21  O   LEU A   3       5.780  27.432  10.949  1.00  0.00    -0.271 OA
ATOM     22  CB  LEU A   3       6.903  25.045  12.816  1.00  0.00    +0.031 C 
ATOM     23  CG  LEU A   3       7.580  23.723  13.183  1.00  0.00    +0.002 C 
ATOM     24  CD1 LEU A   3       7.552  23.518  14.692  1.00  0.00    +0.000 C 
ATOM     25  CD2 LEU A   3       9.090  23.821  12.989  1.00  0.00    +0.000 C 
ATOM     26  N   ALA A   4       4.144  26.032  11.594  1.00  0.00    -0.196 N 
ATOM     27  CA  ALA A   4       3.352  26.914  12.446  1.00  0.00    +0.171 C 
ATOM     28  C   ALA A   4       3.980  27.053  13.823  1.00  0.00    +0.246 C 
ATOM     29  O   ALA A   4       4.634  26.127  14.302  1.00  0.00    -0.273 OA
ATOM     30  CB  ALA A   4       1.930  26.397  12.586  1.00  0.00    +0.033 C 
ATOM     31  N   PRO A   5       3.784  28.205  14.454  1.00  0.00    -0.272 N 
ATOM     32  CA  PRO A   5       3.184  28.251  15.785  1.00  0.00    +0.154 C 
ATOM     33  C   PRO A   5       1.816  27.592  15.836  1.00  0.00    +0.260 C 
ATOM     34  O   PRO A   5       1.221  27.307  14.799  1.00  0.00    -0.272 OA
ATOM     35  CB  PRO A   5       3.043  29.737  16.075  1.00  0.00    +0.031 C 
ATOM     36  CG  PRO A   5       2.860  30.355  14.732  1.00  0.00    +0.024 C 
ATOM     37  CD  PRO A   5       3.709  29.535  13.807  1.00  0.00    +0.094 C 
ATOM     38  N   PHE A   6       1.318  27.347  17.044  1.00  0.00    -0.196 N 
ATOM     39  CA  PHE A   6       0.093  26.570  17.219  1.00  0.00    +0.177 C 
ATOM     40  C   PHE A   6      -1.132  27.424  16.930  1.00  0.00    +0.262 C 
ATOM     41  O   PHE A   6      -1.133  28.624  17.201  1.00  0.00    -0.271 OA
ATOM     42  CB  PHE A   6       0.001  26.012  18.630  1.00  0.00    +0.057 C 
ATOM     43  CG  PHE A   6       0.087  27.057  19.702  1.00  0.00    -0.020 A 
ATOM     44  CD1 PHE A   6       1.322  27.403  20.239  1.00  0.00    -0.004 A 
ATOM     45  CE1 PHE A   6       1.401  28.373  21.232  1.00  0.00    -0.000 A 
ATOM     46  CD2 PHE A   6      -1.068  27.682  20.159  1.00  0.00    -0.004 A 
ATOM     47  CE2 PHE A   6      -0.989  28.651  21.150  1.00  0.00    -0.000 A 
ATOM     48  CZ  PHE A   6       0.245  28.996  21.687  1.00  0.00    -0.000 A 
ATOM     49  N   ALA A   7      -2.171  26.806  16.378  1.00  0.00    -0.196 N 
ATOM     50  CA  ALA A   7      -3.528  27.010  16.878  1.00  0.00    +0.173 C 
ATOM     51  C   ALA A   7      -3.699  26.395  18.259  1.00  0.00    +0.262 C 
ATOM     52  O   ALA A   7      -3.103  25.362  18.559  1.00  0.00    -0.271 OA
ATOM     53  CB  ALA A   7      -4.549  26.408  15.927  1.00  0.00    +0.033 C 
ATOM     54  N   LEU A   8      -4.513  27.030  19.097  1.00  0.00    -0.196 N 
ATOM     55  CA  LEU A   8      -5.619  26.339  19.752  1.00  0.00    +0.173 C 
ATOM     56  C   LEU A   8      -6.864  26.362  18.880  1.00  0.00    +0.262 C 
ATOM     57  O   LEU A   8      -7.097  27.325  18.150  1.00  0.00    -0.271 OA
ATOM     58  CB  LEU A   8      -5.931  26.974  21.097  1.00  0.00    +0.031 C 
ATOM     59  CG  LEU A   8      -5.491  26.185  22.332  1.00  0.00    +0.002 C 
ATOM     60  CD1 LEU A   8      -6.464  26.416  23.481  1.00  0.00    +0.000 C 
ATOM     61  CD2 LEU A   8      -4.246  26.810  22.952  1.00  0.00    +0.000 C 
ATOM     62  N   LEU A   9      -7.664  25.303  18.953  1.00  0.00    -0.196 N 
ATOM     63  CA  LEU A   9      -9.025  25.339  18.427  1.00  0.00    +0.173 C 
ATOM     64  C   LEU A   9     -10.030  25.579  19.541  1.00  0.00    +0.262 C 
ATOM     65  O   LEU A   9      -9.881  25.051  20.643  1.00  0.00    -0.271 OA
ATOM     66  CB  LEU A   9      -9.360  24.042  17.709  1.00  0.00    +0.031 C 
ATOM     67  CG  LEU A   9      -8.461  23.675  16.527  1.00  0.00    +0.002 C 
ATOM     68  CD1 LEU A   9      -8.476  22.167  16.301  1.00  0.00    +0.000 C 
ATOM     69  CD2 LEU A   9      -6.992  23.840  16.900  1.00  0.00    +0.000 C 
ATOM     70  N   VAL A  10     -11.057  26.376  19.257  1.00  0.00    -0.196 N 
ATOM     71  CA  VAL A  10     -12.432  25.897  19.321  1.00  0.00    +0.173 C 
ATOM     72  C   VAL A  10     -13.099  26.067  17.965  1.00  0.00    +0.262 C 
ATOM     73  O   VAL A  10     -13.173  27.177  17.439  1.00  0.00    -0.271 OA
ATOM     74  CB  VAL A  10     -13.241  26.629  20.379  1.00  0.00    +0.029 C 
ATOM     75  CG1 VAL A  10     -14.698  26.176  20.356  1.00  0.00    +0.002 C 
ATOM     76  CG2 VAL A  10     -12.681  26.342  21.770  1.00  0.00    +0.002 C 
ATOM     77  N   VAL A  11     -13.585  24.968  17.397  1.00  0.00    -0.196 N 
ATOM     78  CA  VAL A  11     -14.610  25.038  16.359  1.00  0.00    +0.173 C 
ATOM     79  C   VAL A  11     -15.925  25.499  16.966  1.00  0.00    +0.262 C 
ATOM     80  O   VAL A  11     -16.353  24.981  17.995  1.00  0.00    -0.271 OA
ATOM     81  CB  VAL A  11     -14.812  23.697  15.670  1.00  0.00    +0.029 C 
ATOM     82  CG1 VAL A  11     -15.922  23.789  14.627  1.00  0.00    +0.002 C 
ATOM     83  CG2 VAL A  11     -13.531  23.266  14.960  1.00  0.00    +0.002 C 
ATOM     84  N   PHE A  12     -16.565  26.476  16.329  1.00  0.00    -0.196 N 
ATOM     85  CA  PHE A  12     -17.549  27.312  17.012  1.00  0.00    +0.177 C 
ATOM     86  C   PHE A  12     -18.930  26.682  16.942  1.00  0.00    +0.262 C 
ATOM     87  O   PHE A  12     -19.631  26.602  17.950  1.00  0.00    -0.271 OA
ATOM     88  CB  PHE A  12     -17.595  28.703  16.402  1.00  0.00    +0.057 C 
ATOM     89  CG  PHE A  12     -16.360  29.517  16.654  1.00  0.00    -0.020 A 
ATOM     90  CD1 PHE A  12     -15.377  29.611  15.676  1.00  0.00    -0.004 A 
ATOM     91  CE1 PHE A  12     -14.233  30.365  15.909  1.00  0.00    -0.000 A 
ATOM     92  CD2 PHE A  12     -16.199  30.178  17.866  1.00  0.00    -0.004 A 
ATOM     93  CE2 PHE A  12     -15.056  30.932  18.100  1.00  0.00    -0.000 A 
ATOM     94  CZ  PHE A  12     -14.072  31.025  17.122  1.00  0.00    -0.000 A 
ATOM     95  N   ALA A  13     -19.323  26.233  15.753  1.00  0.00    -0.196 N 
ATOM     96  CA  ALA A  13     -20.347  26.929  14.978  1.00  0.00    +0.173 C 
ATOM     97  C   ALA A  13     -21.625  27.092  15.785  1.00  0.00    +0.262 C 
ATOM     98  O   ALA A  13     -22.009  26.194  16.534  1.00  0.00    -0.271 OA
ATOM     99  CB  ALA A  13     -20.651  26.181  13.691  1.00  0.00    +0.033 C 
ATOM    100  N   GLY A  14     -22.284  28.236  15.635  1.00  0.00    -0.194 N 
ATOM    101  CA  GLY A  14     -22.488  28.829  14.315  1.00  0.00    +0.201 C 
ATOM    102  C   GLY A  14     -23.724  28.250  13.646  1.00  0.00    +0.264 C 
ATOM    103  O   GLY A  14     -24.546  27.612  14.301  1.00  0.00    -0.271 OA
ATOM    104  N   ALA A  15     -23.856  28.472  12.342  1.00  0.00    -0.196 N 
ATOM    105  CA  ALA A  15     -25.155  28.382  11.683  1.00  0.00    +0.173 C 
ATOM    106  C   ALA A  15     -25.720  26.975  11.780  1.00  0.00    +0.262 C 
ATOM    107  O   ALA A  15     -26.908  26.762  11.538  1.00  0.00    -0.271 OA
ATOM    108  CB  ALA A  15     -25.047  28.786  10.222  1.00  0.00    +0.033 C 
ATOM    109  N   SER A  16     -24.873  26.014  12.135  1.00  0.00    -0.194 N 
ATOM    110  CA  SER A  16     -25.027  24.646  11.650  1.00  0.00    +0.207 C 
ATOM    111  C   SER A  16     -26.262  23.987  12.243  1.00  0.00    +0.264 C 
ATOM    112  O   SER A  16     -26.969  23.252  11.554  1.00  0.00    -0.271 OA
ATOM    113  CB  SER A  16     -23.799  23.817  11.986  1.00  0.00    +0.226 C 
ATOM    114  OG  SER A  16     -23.616  23.733  13.388  1.00  0.00    -0.167 OA
ATOM    115  N   ASP A  17     -26.522  24.248  13.520  1.00  0.00    -0.196 N 
ATOM    116  CA  ASP A  17     -26.483  23.198  14.534  1.00  0.00    +0.184 C 
ATOM    117  C   ASP A  17     -27.884  22.717  14.876  1.00  0.00    +0.262 C 
ATOM    118  O   ASP A  17     -28.836  23.495  14.845  1.00  0.00    -0.271 OA
ATOM    119  CB  ASP A  17     -25.793  23.689  15.797  1.00  0.00    +0.144 C 
ATOM    120  CG  ASP A  17     -24.290  23.848  15.630  1.00  0.00    +0.354 C 
ATOM    121  OD1 ASP A  17     -23.728  23.330  14.641  1.00  0.00    -0.295 OA
ATOM    122  OD2 ASP A  17     -23.665  24.496  16.498  1.00  0.00    -0.247 OA
ATOM    123  N   TRP A  18     -28.011  21.432  15.200  1.00  0.00    -0.196 N 
ATOM    124  CA  TRP A  18     -29.140  20.957  15.993  1.00  0.00    +0.177 C 
ATOM    125  C   TRP A  18     -28.659  20.195  17.218  1.00  0.00    +0.262 C 
ATOM    126  O   TRP A  18     -27.498  19.796  17.289  1.00  0.00    -0.271 OA
ATOM    127  CB  TRP A  18     -30.046  20.062  15.163  1.00  0.00    +0.055 C 
ATOM    128  CG  TRP A  18     -29.312  19.084  14.296  1.00  0.00    -0.014 C 
ATOM    129  CD1 TRP A  18     -29.328  19.019  12.928  1.00  0.00    +0.091 C 
ATOM    130  CD2 TRP A  18     -28.456  18.028  14.737  1.00  0.00    +0.082 C 
ATOM    131  NE1 TRP A  18     -28.520  17.974  12.528  1.00  0.00    -0.248 NA
ATOM    132  CE2 TRP A  18     -27.972  17.348  13.612  1.00  0.00    +0.066 C 
ATOM    133  CE3 TRP A  18     -28.039  17.579  15.995  1.00  0.00    -0.016 C 
ATOM    134  CZ2 TRP A  18     -27.104  16.261  13.769  1.00  0.00    +0.015 C 
ATOM    135  CZ3 TRP A  18     -27.169  16.486  16.096  1.00  0.00    -0.004 C 
ATOM    136  CH2 TRP A  18     -26.720  15.853  15.053  1.00  0.00    +0.001 C 
ATOM    137  N   ILE A  19     -29.552  19.992  18.182  1.00  0.00    -0.196 N 
ATOM    138  CA  ILE A  19     -30.903  20.536  18.093  1.00  0.00    +0.173 C 
ATOM    139  C   ILE A  19     -30.960  21.886  18.789  1.00  0.00    +0.262 C 
ATOM    140  O   ILE A  19     -30.660  21.990  19.977  1.00  0.00    -0.271 OA
ATOM    141  CB  ILE A  19     -31.934  19.604  18.710  1.00  0.00    +0.029 C 
ATOM    142  CG1 ILE A  19     -33.337  20.191  18.584  1.00  0.00    +0.002 C 
ATOM    143  CG2 ILE A  19     -31.616  19.363  20.185  1.00  0.00    +0.002 C 
ATOM    144  CD1 ILE A  19     -34.450  19.169  18.740  1.00  0.00    +0.000 C 
ATOM    145  N   ARG A  20     -31.345  22.923  18.049  1.00  0.00    -0.196 N 
ATOM    146  CA  ARG A  20     -31.921  24.119  18.658  1.00  0.00    +0.173 C 
ATOM    147  C   ARG A  20     -33.195  23.785  19.415  1.00  0.00    +0.262 C 
ATOM    148  O   ARG A  20     -33.238  23.881  20.640  1.00  0.00    -0.271 OA
ATOM    149  CB  ARG A  20     -32.219  25.172  17.604  1.00  0.00    +0.033 C 
ATOM    150  CG  ARG A  20     -32.622  26.521  18.182  1.00  0.00    +0.029 C 
ATOM    151  CD  ARG A  20     -32.363  27.654  17.202  1.00  0.00    +0.129 C 
ATOM    152  NE  ARG A  20     -32.598  28.959  17.812  1.00  0.00    -0.234 NA
ATOM    153  CZ  ARG A  20     -32.580  30.117  17.159  1.00  0.00    +0.284 C 
ATOM    154  NH1 ARG A  20     -32.399  30.149  15.842  1.00  0.00    -0.104 N 
ATOM    155  NH2 ARG A  20     -32.747  31.254  17.829  1.00  0.00    -0.104 N 
ATOM    156  N   ARG A  21     -34.236  23.391  18.687  1.00  0.00    -0.194 N 
ATOM    157  CA  ARG A  21     -34.082  22.435  17.594  1.00  0.00    +0.198 C 
ATOM    158  C   ARG A  21     -34.470  23.062  16.265  1.00  0.00    +0.384 C 
ATOM    159  O   ARG A  21     -34.411  22.406  15.225  1.00  0.00    -0.244 OA
ATOM    160  CB  ARG A  21     -34.928  21.194  17.836  1.00  0.00    +0.035 C 
ATOM    161  CG  ARG A  21     -35.553  21.138  19.220  1.00  0.00    +0.029 C 
ATOM    162  CD  ARG A  21     -36.459  19.927  19.381  1.00  0.00    +0.129 C 
ATOM    163  NE  ARG A  21     -37.721  20.280  20.022  1.00  0.00    -0.234 NA
ATOM    164  CZ  ARG A  21     -38.925  19.959  19.555  1.00  0.00    +0.284 C 
ATOM    165  NH1 ARG A  21     -39.052  19.174  18.488  1.00  0.00    -0.104 N 
ATOM    166  NH2 ARG A  21     -40.012  20.430  20.161  1.00  0.00    -0.104 N 
ATOM    167  OXT ARG A  21     -34.847  24.231  16.211  1.00  0.00    -0.244 OA
ATOM    168  H   MET A   1       8.327  19.470   6.522  1.00  0.00    +0.000 HD
ATOM    169  H   MET A   1       7.324  19.907   7.779  1.00  0.00    +0.000 HD
ATOM    170  H   LYS A   2       8.100  24.063   6.377  1.00  0.00    +0.000 HD
ATOM    171  H   LYS A   2       9.891  29.580   5.109  1.00  0.00    +0.000 HD
ATOM    172  H   LEU A   3       8.399  25.605  10.818  1.00  0.00    +0.000 HD
ATOM    173  H   ALA A   4       3.733  25.212  11.237  1.00  0.00    +0.000 HD
ATOM    174  H   PHE A   6       1.783  27.697  17.838  1.00  0.00    +0.000 HD
ATOM    175  H   ALA A   7      -2.023  26.199  15.617  1.00  0.00    +0.000 HD
ATOM    176  H   LEU A   8      -4.366  27.987  19.280  1.00  0.00    +0.000 HD
ATOM    177  H   LEU A   9      -7.331  24.476  19.371  1.00  0.00    +0.000 HD
ATOM    178  H   VAL A  10     -10.883  27.310  18.999  1.00  0.00    +0.000 HD
ATOM    179  H   VAL A  11     -13.246  24.088  17.682  1.00  0.00    +0.000 HD
ATOM    180  H   PHE A  12     -16.371  26.638  15.377  1.00  0.00    +0.000 HD
ATOM    181  H   ALA A  13     -18.915  25.415  15.387  1.00  0.00    +0.000 HD
ATOM    182  H   GLY A  14     -22.643  28.694  16.430  1.00  0.00    +0.000 HD
ATOM    183  H   ALA A  15     -23.060  28.701  11.809  1.00  0.00    +0.000 HD
ATOM    184  H   SER A  16     -24.125  26.230  12.738  1.00  0.00    +0.000 HD
ATOM    185  H   ASP A  17     -26.746  25.168  13.788  1.00  0.00    +0.000 HD
ATOM    186  H   TRP A  18     -27.329  20.790  14.897  1.00  0.00    +0.000 HD
ATOM    187  H   ILE A  19     -29.297  19.463  18.973  1.00  0.00    +0.000 HD
ATOM    188  H   ARG A  20     -31.240  22.883  17.071  1.00  0.00    +0.000 HD
ATOM    189  H   ARG A  20     -32.387  31.011  15.367  1.00  0.00    +0.000 HD
ATOM    190  H   ARG A  20     -32.276  29.310  15.342  1.00  0.00    +0.000 HD
ATOM    191  H   ARG A  20     -32.735  32.113  17.350  1.00  0.00    +0.000 HD
ATOM    192  H   ARG A  20     -32.883  31.236  18.803  1.00  0.00    +0.000 HD
ATOM    193  H   ARG A  21     -35.129  23.752  18.889  1.00  0.00    +0.000 HD
ATOM    194  H   ARG A  21     -34.125  21.514  15.248  1.00  0.00    +0.000 HD
ATOM    195  H   ARG A  21     -39.947  18.943  18.151  1.00  0.00    +0.000 HD
ATOM    196  H   ARG A  21     -38.250  18.824  18.037  1.00  0.00    +0.000 HD
ATOM    197  H   ARG A  21     -40.906  20.196  19.821  1.00  0.00    +0.000 HD
ATOM    198  H   ARG A  21     -39.923  21.012  20.950  1.00  0.00    +0.000 HD
ENDROOT
TORSDOF 0
