REMARK  Name = /var/folders/yp/yjbh3p597675h2qddgqr02y00000gn/T/tmpbq8zdan1.pdb
REMARK     285 UNITARY VALUES FOR THE UNIT CELL AUTOMATICALLY SET
REMARK     285 BY MDANALYSIS PDBWRITER BECAUSE UNIT CELL INFORMATION
REMARK     285 WAS MISSING.
REMARK     285 PROTEIN DATA BANK CONVENTIONS REQUIRE THAT
REMARK     285 CRYST1 RECORD IS INCLUDED, BUT THE VALUES ON
REMARK     285 THIS RECORD ARE MEANINGLESS.
REMARK     285 UNITARY VALUES FOR THE UNIT CELL AUTOMATICALLY SET
REMARK     285 BY MDANALYSIS PDBWRITER BECAUSE UNIT CELL INFORMATION
REMARK     285 WAS MISSING.
REMARK     285 PROTEIN DATA BANK CONVENTIONS REQUIRE THAT
REMARK     285 CRYST1 RECORD IS INCLUDED, BUT THE VALUES ON
REMARK     285 THIS RECORD ARE MEANINGLESS.
REMARK                            x       y       z     vdW  Elec       q    Type
REMARK                         _______ _______ _______ _____ _____    ______ ____
ROOT
ATOM      1  N   MET A   1     -12.053 -17.396   8.491  1.00  0.00    -0.123 NA
ATOM      2  CA  MET A   1     -10.718 -17.456   9.083  1.00  0.00    +0.170 C 
ATOM      3  C   MET A   1     -10.552 -18.713   9.920  1.00  0.00    +0.259 C 
ATOM      4  O   MET A   1     -11.447 -19.082  10.679  1.00  0.00    -0.272 OA
ATOM      5  CB  MET A   1     -10.453 -16.233   9.945  1.00  0.00    +0.040 C 
ATOM      6  CG  MET A   1      -9.072 -16.222  10.580  1.00  0.00    +0.060 C 
ATOM      7  SD  MET A   1      -7.750 -15.961   9.371  1.00  0.00    -0.139 S 
ATOM      8  CE  MET A   1      -8.030 -17.346   8.273  1.00  0.00    +0.069 C 
ATOM      9  N   LYS A   2      -9.404 -19.372   9.785  1.00  0.00    -0.197 N 
ATOM     10  CA  LYS A   2      -9.142 -20.601  10.527  1.00  0.00    +0.173 C 
ATOM     11  C   LYS A   2      -7.932 -20.446  11.434  1.00  0.00    +0.262 C 
ATOM     12  O   LYS A   2      -6.854 -20.069  10.976  1.00  0.00    -0.271 OA
ATOM     13  CB  LYS A   2      -8.918 -21.768   9.578  1.00  0.00    +0.031 C 
ATOM     14  CG  LYS A   2      -8.959 -23.127  10.254  1.00  0.00    +0.009 C 
ATOM     15  CD  LYS A   2      -8.926 -24.263   9.245  1.00  0.00    +0.049 C 
ATOM     16  CE  LYS A   2      -7.959 -24.010   8.180  1.00  0.00    +0.096 C 
ATOM     17  NZ  LYS A   2      -7.729 -24.825   7.155  1.00  0.00    -0.151 NA
ATOM     18  N   GLN A   3      -8.109 -20.736  12.720  1.00  0.00    -0.196 N 
ATOM     19  CA  GLN A   3      -7.151 -21.558  13.452  1.00  0.00    +0.173 C 
ATOM     20  C   GLN A   3      -7.273 -23.022  13.059  1.00  0.00    +0.262 C 
ATOM     21  O   GLN A   3      -8.377 -23.521  12.847  1.00  0.00    -0.271 OA
ATOM     22  CB  GLN A   3      -7.351 -21.417  14.952  1.00  0.00    +0.041 C 
ATOM     23  CG  GLN A   3      -8.184 -22.531  15.566  1.00  0.00    +0.091 C 
ATOM     24  CD  GLN A   3      -8.220 -22.469  17.084  1.00  0.00    +0.261 C 
ATOM     25  OE1 GLN A   3      -7.173 -22.366  17.742  1.00  0.00    -0.272 OA
ATOM     26  NE2 GLN A   3      -9.420 -22.533  17.653  1.00  0.00    -0.088 N 
ATOM     27  N   ALA A   4      -6.140 -23.710  12.962  1.00  0.00    -0.196 N 
ATOM     28  CA  ALA A   4      -5.165 -23.426  11.912  1.00  0.00    +0.173 C 
ATOM     29  C   ALA A   4      -5.748 -23.701  10.536  1.00  0.00    +0.262 C 
ATOM     30  O   ALA A   4      -6.609 -24.565  10.382  1.00  0.00    -0.271 OA
ATOM     31  CB  ALA A   4      -3.906 -24.255  12.105  1.00  0.00    +0.033 C 
ATOM     32  N   VAL A   5      -5.278 -22.965   9.532  1.00  0.00    -0.196 N 
ATOM     33  CA  VAL A   5      -4.394 -23.537   8.519  1.00  0.00    +0.173 C 
ATOM     34  C   VAL A   5      -3.206 -22.616   8.296  1.00  0.00    +0.262 C 
ATOM     35  O   VAL A   5      -3.351 -21.394   8.312  1.00  0.00    -0.271 OA
ATOM     36  CB  VAL A   5      -5.114 -23.766   7.200  1.00  0.00    +0.029 C 
ATOM     37  CG1 VAL A   5      -4.220 -23.387   6.023  1.00  0.00    +0.002 C 
ATOM     38  CG2 VAL A   5      -5.492 -25.239   7.050  1.00  0.00    +0.002 C 
ATOM     39  N   PHE A   6      -2.030 -23.200   8.087  1.00  0.00    -0.196 N 
ATOM     40  CA  PHE A   6      -1.568 -24.301   8.928  1.00  0.00    +0.177 C 
ATOM     41  C   PHE A   6      -1.268 -23.812  10.337  1.00  0.00    +0.262 C 
ATOM     42  O   PHE A   6      -0.462 -22.903  10.523  1.00  0.00    -0.271 OA
ATOM     43  CB  PHE A   6      -0.325 -24.948   8.340  1.00  0.00    +0.059 C 
ATOM     44  CG  PHE A   6       0.343 -25.925   9.262  1.00  0.00    -0.006 A 
ATOM     45  CD1 PHE A   6       1.616 -25.659   9.754  1.00  0.00    +0.000 A 
ATOM     46  CE1 PHE A   6       2.233 -26.564  10.608  1.00  0.00    +0.037 A 
ATOM     47  CD2 PHE A   6      -0.311 -27.096   9.625  1.00  0.00    +0.050 A 
ATOM     48  CE2 PHE A   6       0.306 -28.001  10.480  1.00  0.00    +0.051 A 
ATOM     49  CZ  PHE A   6       1.579 -27.735  10.972  1.00  0.00    +0.142 A 
ATOM     50  N   ALA A   7      -1.916 -24.417  11.327  1.00  0.00    -0.200 N 
ATOM     51  CA  ALA A   7      -1.208 -25.213  12.326  1.00  0.00    +0.155 C 
ATOM     52  C   ALA A   7      -0.684 -26.506  11.722  1.00  0.00    +0.265 C 
ATOM     53  O   ALA A   7       0.417 -26.946  12.049  1.00  0.00    -0.459 OA
ATOM     54  CB  ALA A   7      -2.115 -25.533  13.503  1.00  0.00    +0.029 C 
ATOM     55  N   LEU A   8      -1.472 -27.114  10.840  1.00  0.00    -0.268 N 
ATOM     56  CA  LEU A   8      -2.542 -28.011  11.269  1.00  0.00    +0.154 C 
ATOM     57  C   LEU A   8      -1.975 -29.227  11.983  1.00  0.00    +0.260 C 
ATOM     58  O   LEU A   8      -2.533 -29.681  12.981  1.00  0.00    -0.272 OA
ATOM     59  CB  LEU A   8      -3.374 -28.462  10.080  1.00  0.00    +0.029 C 
ATOM     60  CG  LEU A   8      -4.560 -29.376  10.396  1.00  0.00    +0.002 C 
ATOM     61  CD1 LEU A   8      -4.890 -30.248   9.190  1.00  0.00    +0.000 C 
ATOM     62  CD2 LEU A   8      -5.853 -28.571  10.461  1.00  0.00    +0.000 C 
ATOM     63  N   LEU A   9      -0.866 -29.755  11.472  1.00  0.00    -0.196 N 
ATOM     64  CA  LEU A   9      -0.496 -31.144  11.730  1.00  0.00    +0.173 C 
ATOM     65  C   LEU A   9       0.219 -31.273  13.065  1.00  0.00    +0.262 C 
ATOM     66  O   LEU A   9       0.393 -32.380  13.574  1.00  0.00    -0.271 OA
ATOM     67  CB  LEU A   9       0.397 -31.679  10.622  1.00  0.00    +0.031 C 
ATOM     68  CG  LEU A   9      -0.261 -32.647   9.637  1.00  0.00    +0.002 C 
ATOM     69  CD1 LEU A   9      -1.143 -31.884   8.656  1.00  0.00    +0.000 C 
ATOM     70  CD2 LEU A   9      -1.343 -33.467  10.332  1.00  0.00    +0.000 C 
ATOM     71  N   GLN A  10       0.634 -30.146  13.633  1.00  0.00    -0.196 N 
ATOM     72  CA  GLN A  10       1.455 -30.158  14.839  1.00  0.00    +0.173 C 
ATOM     73  C   GLN A  10       0.591 -30.137  16.090  1.00  0.00    +0.262 C 
ATOM     74  O   GLN A  10       1.046 -30.513  17.170  1.00  0.00    -0.271 OA
ATOM     75  CB  GLN A  10       2.407 -28.973  14.860  1.00  0.00    +0.041 C 
ATOM     76  CG  GLN A  10       3.581 -29.115  13.905  1.00  0.00    +0.091 C 
ATOM     77  CD  GLN A  10       4.008 -27.788  13.298  1.00  0.00    +0.261 C 
ATOM     78  OE1 GLN A  10       3.242 -26.815  13.295  1.00  0.00    -0.272 OA
ATOM     79  NE2 GLN A  10       5.234 -27.739  12.780  1.00  0.00    -0.088 N 
ATOM     80  N   VAL A  11      -0.655 -29.698  15.947  1.00  0.00    -0.196 N 
ATOM     81  CA  VAL A  11      -1.506 -29.434  17.103  1.00  0.00    +0.173 C 
ATOM     82  C   VAL A  11      -2.723 -30.345  17.064  1.00  0.00    +0.262 C 
ATOM     83  O   VAL A  11      -3.388 -30.456  16.035  1.00  0.00    -0.271 OA
ATOM     84  CB  VAL A  11      -1.960 -27.985  17.155  1.00  0.00    +0.029 C 
ATOM     85  CG1 VAL A  11      -2.218 -27.552  18.598  1.00  0.00    +0.002 C 
ATOM     86  CG2 VAL A  11      -0.884 -27.070  16.574  1.00  0.00    +0.002 C 
ATOM     87  N   PHE A  12      -3.015 -30.998  18.185  1.00  0.00    -0.196 N 
ATOM     88  CA  PHE A  12      -3.797 -32.232  18.164  1.00  0.00    +0.177 C 
ATOM     89  C   PHE A  12      -5.261 -31.946  18.451  1.00  0.00    +0.262 C 
ATOM     90  O   PHE A  12      -6.141 -32.681  18.005  1.00  0.00    -0.271 OA
ATOM     91  CB  PHE A  12      -3.265 -33.229  19.182  1.00  0.00    +0.057 C 
ATOM     92  CG  PHE A  12      -4.294 -33.691  20.172  1.00  0.00    -0.020 A 
ATOM     93  CD1 PHE A  12      -4.509 -32.966  21.338  1.00  0.00    -0.004 A 
ATOM     94  CE1 PHE A  12      -5.461 -33.394  22.255  1.00  0.00    -0.000 A 
ATOM     95  CD2 PHE A  12      -5.030 -34.842  19.923  1.00  0.00    -0.004 A 
ATOM     96  CE2 PHE A  12      -5.982 -35.270  20.840  1.00  0.00    -0.000 A 
ATOM     97  CZ  PHE A  12      -6.198 -34.546  22.006  1.00  0.00    -0.000 A 
ATOM     98  N   ALA A  13      -5.526 -30.877  19.197  1.00  0.00    -0.196 N 
ATOM     99  CA  ALA A  13      -6.223 -30.995  20.474  1.00  0.00    +0.173 C 
ATOM    100  C   ALA A  13      -7.615 -31.576  20.286  1.00  0.00    +0.262 C 
ATOM    101  O   ALA A  13      -8.337 -31.183  19.370  1.00  0.00    -0.271 OA
ATOM    102  CB  ALA A  13      -6.327 -29.642  21.158  1.00  0.00    +0.033 C 
ATOM    103  N   GLY A  14      -7.992 -32.513  21.152  1.00  0.00    -0.194 N 
ATOM    104  CA  GLY A  14      -9.356 -32.564  21.670  1.00  0.00    +0.201 C 
ATOM    105  C   GLY A  14      -9.422 -31.996  23.078  1.00  0.00    +0.264 C 
ATOM    106  O   GLY A  14      -8.468 -31.374  23.546  1.00  0.00    -0.271 OA
ATOM    107  N   SER A  15     -10.546 -32.206  23.754  1.00  0.00    -0.194 N 
ATOM    108  CA  SER A  15     -10.645 -31.906  25.180  1.00  0.00    +0.205 C 
ATOM    109  C   SER A  15      -9.764 -32.833  26.001  1.00  0.00    +0.264 C 
ATOM    110  O   SER A  15      -9.575 -33.995  25.644  1.00  0.00    -0.271 OA
ATOM    111  CB  SER A  15     -12.084 -32.021  25.655  1.00  0.00    +0.213 C 
ATOM    112  OG  SER A  15     -12.969 -31.411  24.731  1.00  0.00    -0.218 OA
ATOM    113  N   SER A  16      -9.223 -32.321  27.103  1.00  0.00    -0.194 N 
ATOM    114  CA  SER A  16      -8.556 -33.168  28.087  1.00  0.00    +0.205 C 
ATOM    115  C   SER A  16      -9.564 -33.940  28.923  1.00  0.00    +0.264 C 
ATOM    116  O   SER A  16     -10.701 -33.503  29.091  1.00  0.00    -0.271 OA
ATOM    117  CB  SER A  16      -7.673 -32.334  29.002  1.00  0.00    +0.213 C 
ATOM    118  OG  SER A  16      -8.446 -31.709  30.012  1.00  0.00    -0.218 OA
ATOM    119  N   ASP A  17      -9.149 -35.090  29.445  1.00  0.00    -0.196 N 
ATOM    120  CA  ASP A  17     -10.088 -36.038  30.039  1.00  0.00    +0.184 C 
ATOM    121  C   ASP A  17     -10.047 -35.968  31.557  1.00  0.00    +0.262 C 
ATOM    122  O   ASP A  17      -8.973 -35.888  32.151  1.00  0.00    -0.271 OA
ATOM    123  CB  ASP A  17      -9.783 -37.458  29.588  1.00  0.00    +0.145 C 
ATOM    124  CG  ASP A  17     -10.584 -37.880  28.368  1.00  0.00    +0.367 C 
ATOM    125  OD1 ASP A  17     -11.801 -37.597  28.310  1.00  0.00    -0.246 OA
ATOM    126  OD2 ASP A  17      -9.993 -38.502  27.458  1.00  0.00    -0.246 OA
ATOM    127  N   TRP A  18     -11.218 -35.998  32.187  1.00  0.00    -0.196 N 
ATOM    128  CA  TRP A  18     -11.349 -36.571  33.522  1.00  0.00    +0.177 C 
ATOM    129  C   TRP A  18     -12.287 -37.767  33.509  1.00  0.00    +0.262 C 
ATOM    130  O   TRP A  18     -13.098 -37.916  32.596  1.00  0.00    -0.271 OA
ATOM    131  CB  TRP A  18     -11.861 -35.535  34.509  1.00  0.00    +0.055 C 
ATOM    132  CG  TRP A  18     -12.932 -34.640  33.959  1.00  0.00    -0.014 C 
ATOM    133  CD1 TRP A  18     -12.765 -33.575  33.113  1.00  0.00    +0.091 C 
ATOM    134  CD2 TRP A  18     -14.336 -34.733  34.214  1.00  0.00    +0.082 C 
ATOM    135  NE1 TRP A  18     -14.002 -33.026  32.850  1.00  0.00    -0.248 NA
ATOM    136  CE2 TRP A  18     -14.984 -33.711  33.508  1.00  0.00    +0.066 C 
ATOM    137  CE3 TRP A  18     -15.127 -35.594  34.984  1.00  0.00    -0.019 C 
ATOM    138  CZ2 TRP A  18     -16.375 -33.578  33.587  1.00  0.00    +0.015 C 
ATOM    139  CZ3 TRP A  18     -16.515 -35.417  35.028  1.00  0.00    -0.006 C 
ATOM    140  CH2 TRP A  18     -17.119 -34.468  34.373  1.00  0.00    -0.002 C 
ATOM    141  N   ILE A  19     -12.180 -38.621  34.524  1.00  0.00    -0.196 N 
ATOM    142  CA  ILE A  19     -13.352 -39.289  35.083  1.00  0.00    +0.173 C 
ATOM    143  C   ILE A  19     -13.671 -38.705  36.450  1.00  0.00    +0.262 C 
ATOM    144  O   ILE A  19     -12.843 -38.753  37.358  1.00  0.00    -0.271 OA
ATOM    145  CB  ILE A  19     -13.146 -40.789  35.208  1.00  0.00    +0.029 C 
ATOM    146  CG1 ILE A  19     -12.342 -41.324  34.023  1.00  0.00    +0.002 C 
ATOM    147  CG2 ILE A  19     -14.491 -41.508  35.274  1.00  0.00    +0.002 C 
ATOM    148  CD1 ILE A  19     -12.545 -42.807  33.761  1.00  0.00    +0.000 C 
ATOM    149  N   ARG A  20     -14.873 -38.153  36.597  1.00  0.00    -0.196 N 
ATOM    150  CA  ARG A  20     -15.320 -37.639  37.889  1.00  0.00    +0.173 C 
ATOM    151  C   ARG A  20     -15.912 -38.751  38.739  1.00  0.00    +0.262 C 
ATOM    152  O   ARG A  20     -15.648 -38.829  39.938  1.00  0.00    -0.271 OA
ATOM    153  CB  ARG A  20     -16.349 -36.536  37.706  1.00  0.00    +0.033 C 
ATOM    154  CG  ARG A  20     -17.614 -36.988  36.994  1.00  0.00    +0.028 C 
ATOM    155  CD  ARG A  20     -17.490 -36.853  35.485  1.00  0.00    +0.117 C 
ATOM    156  NE  ARG A  20     -18.626 -37.457  34.795  1.00  0.00    -0.205 N 
ATOM    157  CZ  ARG A  20     -19.075 -38.691  35.009  1.00  0.00    +0.202 C 
ATOM    158  NH1 ARG A  20     -18.375 -39.549  35.746  1.00  0.00    -0.274 N 
ATOM    159  NH2 ARG A  20     -20.234 -39.069  34.480  1.00  0.00    -0.218 NA
ATOM    160  N   ARG A  21     -16.715 -39.612  38.120  1.00  0.00    -0.192 N 
ATOM    161  CA  ARG A  21     -18.165 -39.556  38.289  1.00  0.00    +0.217 C 
ATOM    162  C   ARG A  21     -18.672 -40.776  39.039  1.00  0.00    +0.386 C 
ATOM    163  O   ARG A  21     -18.855 -41.841  38.451  1.00  0.00    -0.244 OA
ATOM    164  CB  ARG A  21     -18.864 -39.461  36.943  1.00  0.00    +0.128 C 
ATOM    165  CG  ARG A  21     -19.282 -40.807  36.371  1.00  0.00    +0.141 C 
ATOM    166  CD  ARG A  21     -19.793 -40.680  34.946  1.00  0.00    +0.230 C 
ATOM    167  NE  ARG A  21     -20.166 -41.977  34.390  1.00  0.00    -0.209 NA
ATOM    168  CZ  ARG A  21     -21.395 -42.315  34.010  1.00  0.00    +0.286 C 
ATOM    169  NH1 ARG A  21     -22.452 -41.953  34.732  1.00  0.00    -0.104 N 
ATOM    170  NH2 ARG A  21     -21.567 -43.023  32.897  1.00  0.00    -0.104 N 
ATOM    171  OXT ARG A  21     -18.908 -40.717  40.246  1.00  0.00    -0.244 OA
ATOM    172  H   MET A   1     -12.209 -18.225   7.918  1.00  0.00    +0.000 HD
ATOM    173  H   MET A   1     -12.129 -16.561   7.910  1.00  0.00    +0.000 HD
ATOM    174  H   LYS A   2      -8.718 -19.023   9.172  1.00  0.00    +0.000 HD
ATOM    175  H   LYS A   2      -8.229 -25.670   7.076  1.00  0.00    +0.000 HD
ATOM    176  H   GLN A   3      -8.902 -20.390  13.188  1.00  0.00    +0.000 HD
ATOM    177  H   GLN A   3      -9.502 -22.497  18.634  1.00  0.00    +0.000 HD
ATOM    178  H   GLN A   3     -10.227 -22.616  17.094  1.00  0.00    +0.000 HD
ATOM    179  H   ALA A   4      -5.954 -24.427  13.612  1.00  0.00    +0.000 HD
ATOM    180  H   VAL A   5      -5.531 -22.016   9.470  1.00  0.00    +0.000 HD
ATOM    181  H   PHE A   6      -1.459 -22.883   7.350  1.00  0.00    +0.000 HD
ATOM    182  H   ALA A   7      -2.895 -24.326  11.389  1.00  0.00    +0.000 HD
ATOM    183  H   LEU A   9      -0.282 -29.198  10.908  1.00  0.00    +0.000 HD
ATOM    184  H   GLN A  10       0.381 -29.283  13.231  1.00  0.00    +0.000 HD
ATOM    185  H   GLN A  10       5.810 -28.536  12.803  1.00  0.00    +0.000 HD
ATOM    186  H   GLN A  10       5.563 -26.905  12.374  1.00  0.00    +0.000 HD
ATOM    187  H   VAL A  11      -1.011 -29.549  15.041  1.00  0.00    +0.000 HD
ATOM    188  H   PHE A  12      -2.698 -30.643  19.047  1.00  0.00    +0.000 HD
ATOM    189  H   ALA A  13      -5.245 -29.988  18.881  1.00  0.00    +0.000 HD
ATOM    190  H   GLY A  14      -7.338 -33.187  21.448  1.00  0.00    +0.000 HD
ATOM    191  H   SER A  15     -11.330 -32.573  23.284  1.00  0.00    +0.000 HD
ATOM    192  H   SER A  15     -12.751 -30.470  24.647  1.00  0.00    +0.000 HD
ATOM    193  H   SER A  16      -9.272 -31.349  27.258  1.00  0.00    +0.000 HD
ATOM    194  H   SER A  16      -9.101 -31.123  29.601  1.00  0.00    +0.000 HD
ATOM    195  H   ASP A  17      -8.189 -35.306  29.432  1.00  0.00    +0.000 HD
ATOM    196  H   ASP A  17     -12.207 -37.129  29.012  1.00  0.00    +0.000 HD
ATOM    197  H   TRP A  18     -12.014 -35.625  31.742  1.00  0.00    +0.000 HD
ATOM    198  H   ILE A  19     -11.292 -38.807  34.906  1.00  0.00    +0.000 HD
ATOM    199  H   ARG A  20     -15.473 -38.090  35.819  1.00  0.00    +0.000 HD
ATOM    200  H   ARG A  20     -19.094 -36.911  34.122  1.00  0.00    +0.000 HD
ATOM    201  H   ARG A  21     -16.324 -40.302  37.537  1.00  0.00    +0.000 HD
ATOM    202  H   ARG A  21     -22.329 -41.429  35.556  1.00  0.00    +0.000 HD
ATOM    203  H   ARG A  21     -23.356 -42.209  34.442  1.00  0.00    +0.000 HD
ATOM    204  H   ARG A  21     -20.788 -43.293  32.360  1.00  0.00    +0.000 HD
ATOM    205  H   ARG A  21     -22.474 -43.277  32.611  1.00  0.00    +0.000 HD
ATOM    206  H   ARG A  21     -18.774 -39.913  40.709  1.00  0.00    +0.000 HD
ENDROOT
TORSDOF 0
