REMARK  Name = /var/folders/yp/yjbh3p597675h2qddgqr02y00000gn/T/tmpb9xcf0yc.pdb
REMARK     285 UNITARY VALUES FOR THE UNIT CELL AUTOMATICALLY SET
REMARK     285 BY MDANALYSIS PDBWRITER BECAUSE UNIT CELL INFORMATION
REMARK     285 WAS MISSING.
REMARK     285 PROTEIN DATA BANK CONVENTIONS REQUIRE THAT
REMARK     285 CRYST1 RECORD IS INCLUDED, BUT THE VALUES ON
REMARK     285 THIS RECORD ARE MEANINGLESS.
REMARK     285 UNITARY VALUES FOR THE UNIT CELL AUTOMATICALLY SET
REMARK     285 BY MDANALYSIS PDBWRITER BECAUSE UNIT CELL INFORMATION
REMARK     285 WAS MISSING.
REMARK     285 PROTEIN DATA BANK CONVENTIONS REQUIRE THAT
REMARK     285 CRYST1 RECORD IS INCLUDED, BUT THE VALUES ON
REMARK     285 THIS RECORD ARE MEANINGLESS.
REMARK                            x       y       z     vdW  Elec       q    Type
REMARK                         _______ _______ _______ _____ _____    ______ ____
ROOT
ATOM      1  N   MET A   1      28.249  13.249 -21.960  1.00  0.00    -0.123 NA
ATOM      2  CA  MET A   1      26.867  12.824 -22.163  1.00  0.00    +0.170 C 
ATOM      3  C   MET A   1      26.191  12.516 -20.837  1.00  0.00    +0.259 C 
ATOM      4  O   MET A   1      26.818  11.971 -19.929  1.00  0.00    -0.272 OA
ATOM      5  CB  MET A   1      26.804  11.598 -23.060  1.00  0.00    +0.040 C 
ATOM      6  CG  MET A   1      27.234  10.314 -22.370  1.00  0.00    +0.060 C 
ATOM      7  SD  MET A   1      27.663   9.001 -23.539  1.00  0.00    -0.139 S 
ATOM      8  CE  MET A   1      26.375   7.811 -23.183  1.00  0.00    +0.069 C 
ATOM      9  N   LYS A   2      24.914  12.865 -20.723  1.00  0.00    -0.197 N 
ATOM     10  CA  LYS A   2      24.220  12.801 -19.441  1.00  0.00    +0.173 C 
ATOM     11  C   LYS A   2      24.005  11.361 -19.006  1.00  0.00    +0.262 C 
ATOM     12  O   LYS A   2      23.622  10.516 -19.814  1.00  0.00    -0.271 OA
ATOM     13  CB  LYS A   2      22.879  13.514 -19.514  1.00  0.00    +0.031 C 
ATOM     14  CG  LYS A   2      22.678  14.561 -18.432  1.00  0.00    +0.009 C 
ATOM     15  CD  LYS A   2      23.355  15.875 -18.783  1.00  0.00    +0.049 C 
ATOM     16  CE  LYS A   2      22.431  17.001 -18.693  1.00  0.00    +0.096 C 
ATOM     17  NZ  LYS A   2      22.795  18.275 -18.587  1.00  0.00    -0.151 NA
ATOM     18  N   GLN A   3      24.253  11.080 -17.729  1.00  0.00    -0.196 N 
ATOM     19  CA  GLN A   3      23.182  10.690 -16.816  1.00  0.00    +0.173 C 
ATOM     20  C   GLN A   3      23.067  11.670 -15.659  1.00  0.00    +0.262 C 
ATOM     21  O   GLN A   3      24.073  12.183 -15.174  1.00  0.00    -0.271 OA
ATOM     22  CB  GLN A   3      23.416   9.289 -16.275  1.00  0.00    +0.041 C 
ATOM     23  CG  GLN A   3      22.974   8.185 -17.219  1.00  0.00    +0.091 C 
ATOM     24  CD  GLN A   3      23.787   6.911 -17.057  1.00  0.00    +0.261 C 
ATOM     25  OE1 GLN A   3      23.378   5.833 -17.513  1.00  0.00    -0.272 OA
ATOM     26  NE2 GLN A   3      24.941   7.023 -16.407  1.00  0.00    -0.088 N 
ATOM     27  N   ALA A   4      21.840  11.929 -15.217  1.00  0.00    -0.196 N 
ATOM     28  CA  ALA A   4      21.618  12.687 -13.989  1.00  0.00    +0.173 C 
ATOM     29  C   ALA A   4      22.300  12.021 -12.805  1.00  0.00    +0.262 C 
ATOM     30  O   ALA A   4      22.257  10.800 -12.663  1.00  0.00    -0.271 OA
ATOM     31  CB  ALA A   4      20.132  12.831 -13.704  1.00  0.00    +0.033 C 
ATOM     32  N   VAL A   5      22.931  12.823 -11.952  1.00  0.00    -0.196 N 
ATOM     33  CA  VAL A   5      22.579  12.855 -10.536  1.00  0.00    +0.176 C 
ATOM     34  C   VAL A   5      21.441  13.839 -10.310  1.00  0.00    +0.262 C 
ATOM     35  O   VAL A   5      21.662  15.048 -10.262  1.00  0.00    -0.271 OA
ATOM     36  CB  VAL A   5      23.763  13.241  -9.664  1.00  0.00    +0.069 C 
ATOM     37  CG1 VAL A   5      23.290  13.869  -8.356  1.00  0.00    +0.149 C 
ATOM     38  CG2 VAL A   5      24.595  12.007  -9.321  1.00  0.00    +0.021 C 
ATOM     39  N   PHE A   6      20.224  13.320 -10.172  1.00  0.00    -0.196 N 
ATOM     40  CA  PHE A   6      20.020  12.016  -9.547  1.00  0.00    +0.177 C 
ATOM     41  C   PHE A   6      20.784  10.935 -10.297  1.00  0.00    +0.262 C 
ATOM     42  O   PHE A   6      20.523  10.690 -11.474  1.00  0.00    -0.271 OA
ATOM     43  CB  PHE A   6      18.544  11.660  -9.507  1.00  0.00    +0.057 C 
ATOM     44  CG  PHE A   6      18.231  10.311 -10.086  1.00  0.00    -0.020 A 
ATOM     45  CD1 PHE A   6      17.739   9.300  -9.268  1.00  0.00    -0.004 A 
ATOM     46  CE1 PHE A   6      17.448   8.052  -9.804  1.00  0.00    -0.000 A 
ATOM     47  CD2 PHE A   6      18.430  10.073 -11.441  1.00  0.00    -0.004 A 
ATOM     48  CE2 PHE A   6      18.140   8.825 -11.977  1.00  0.00    -0.000 A 
ATOM     49  CZ  PHE A   6      17.648   7.814 -11.159  1.00  0.00    -0.000 A 
ATOM     50  N   ALA A   7      21.725  10.288  -9.616  1.00  0.00    -0.196 N 
ATOM     51  CA  ALA A   7      21.708  10.237  -8.157  1.00  0.00    +0.171 C 
ATOM     52  C   ALA A   7      22.013  11.601  -7.558  1.00  0.00    +0.246 C 
ATOM     53  O   ALA A   7      21.818  11.813  -6.363  1.00  0.00    -0.273 OA
ATOM     54  CB  ALA A   7      22.713   9.221  -7.642  1.00  0.00    +0.033 C 
ATOM     55  N   LEU A   8      22.488  12.523  -8.389  1.00  0.00    -0.273 N 
ATOM     56  CA  LEU A   8      23.915  12.834  -8.443  1.00  0.00    +0.088 C 
ATOM     57  C   LEU A   8      24.315  13.740  -7.291  1.00  0.00    +0.259 C 
ATOM     58  O   LEU A   8      25.349  13.528  -6.659  1.00  0.00    -0.272 OA
ATOM     59  CB  LEU A   8      24.271  13.500  -9.760  1.00  0.00    +0.007 C 
ATOM     60  CG  LEU A   8      25.759  13.543 -10.115  1.00  0.00    +0.000 C 
ATOM     61  CD1 LEU A   8      26.177  14.964 -10.467  1.00  0.00    +0.000 C 
ATOM     62  CD2 LEU A   8      26.007  12.884 -11.468  1.00  0.00    +0.000 C 
ATOM     63  N   LEU A   9      23.496  14.752  -7.016  1.00  0.00    -0.196 N 
ATOM     64  CA  LEU A   9      23.798  15.709  -5.956  1.00  0.00    +0.173 C 
ATOM     65  C   LEU A   9      23.318  15.193  -4.608  1.00  0.00    +0.262 C 
ATOM     66  O   LEU A   9      24.119  14.989  -3.697  1.00  0.00    -0.271 OA
ATOM     67  CB  LEU A   9      23.153  17.055  -6.243  1.00  0.00    +0.035 C 
ATOM     68  CG  LEU A   9      21.655  17.028  -6.557  1.00  0.00    +0.046 C 
ATOM     69  CD1 LEU A   9      21.368  16.040  -7.681  1.00  0.00    +0.004 C 
ATOM     70  CD2 LEU A   9      21.233  18.314  -7.264  1.00  0.00    +0.207 C 
ATOM     71  N   GLN A  10      22.012  14.985  -4.481  1.00  0.00    -0.196 N 
ATOM     72  CA  GLN A  10      21.101  16.066  -4.117  1.00  0.00    +0.173 C 
ATOM     73  C   GLN A  10      20.840  16.081  -2.618  1.00  0.00    +0.262 C 
ATOM     74  O   GLN A  10      20.507  15.051  -2.033  1.00  0.00    -0.271 OA
ATOM     75  CB  GLN A  10      19.782  15.936  -4.860  1.00  0.00    +0.041 C 
ATOM     76  CG  GLN A  10      19.022  17.247  -4.992  1.00  0.00    +0.089 C 
ATOM     77  CD  GLN A  10      19.716  18.238  -5.915  1.00  0.00    +0.220 C 
ATOM     78  OE1 GLN A  10      20.323  17.851  -6.922  1.00  0.00    -0.462 OA
ATOM     79  NE2 GLN A  10      19.630  19.522  -5.577  1.00  0.00    -0.112 NA
ATOM     80  N   VAL A  11      20.990  17.246  -1.999  1.00  0.00    -0.196 N 
ATOM     81  CA  VAL A  11      19.843  17.984  -1.477  1.00  0.00    +0.173 C 
ATOM     82  C   VAL A  11      19.672  19.282  -2.251  1.00  0.00    +0.262 C 
ATOM     83  O   VAL A  11      20.650  19.964  -2.553  1.00  0.00    -0.271 OA
ATOM     84  CB  VAL A  11      19.993  18.294   0.003  1.00  0.00    +0.029 C 
ATOM     85  CG1 VAL A  11      20.041  17.004   0.821  1.00  0.00    +0.002 C 
ATOM     86  CG2 VAL A  11      21.288  19.062   0.258  1.00  0.00    +0.002 C 
ATOM     87  N   PHE A  12      18.427  19.623  -2.575  1.00  0.00    -0.196 N 
ATOM     88  CA  PHE A  12      17.835  20.873  -2.105  1.00  0.00    +0.177 C 
ATOM     89  C   PHE A  12      17.134  20.669  -0.772  1.00  0.00    +0.262 C 
ATOM     90  O   PHE A  12      17.036  21.596   0.030  1.00  0.00    -0.271 OA
ATOM     91  CB  PHE A  12      16.846  21.419  -3.121  1.00  0.00    +0.055 C 
ATOM     92  CG  PHE A  12      15.499  20.760  -3.070  1.00  0.00    -0.014 C 
ATOM     93  CD1 PHE A  12      15.232  19.663  -3.882  1.00  0.00    +0.166 C 
ATOM     94  CE1 PHE A  12      13.984  19.053  -3.835  1.00  0.00    +0.004 C 
ATOM     95  CD2 PHE A  12      14.520  21.245  -2.213  1.00  0.00    -0.027 C 
ATOM     96  CE2 PHE A  12      13.271  20.635  -2.165  1.00  0.00    +0.051 C 
ATOM     97  CZ  PHE A  12      13.004  19.539  -2.977  1.00  0.00    -0.023 C 
ATOM     98  N   ALA A  13      16.646  19.455  -0.535  1.00  0.00    -0.202 N 
ATOM     99  CA  ALA A  13      16.815  18.366  -1.493  1.00  0.00    +0.139 C 
ATOM    100  C   ALA A  13      16.051  18.645  -2.777  1.00  0.00    +0.201 C 
ATOM    101  O   ALA A  13      14.892  19.060  -2.737  1.00  0.00    -0.332 OA
ATOM    102  CB  ALA A  13      16.345  17.049  -0.899  1.00  0.00    +0.028 C 
ATOM    103  N   GLY A  14      16.697  18.418  -3.917  1.00  0.00    -0.181 NA
ATOM    104  CA  GLY A  14      16.091  18.728  -5.209  1.00  0.00    +0.178 C 
ATOM    105  C   GLY A  14      15.340  17.525  -5.757  1.00  0.00    +0.260 C 
ATOM    106  O   GLY A  14      15.396  16.439  -5.181  1.00  0.00    -0.272 OA
ATOM    107  N   SER A  15      14.635  17.717  -6.867  1.00  0.00    -0.194 N 
ATOM    108  CA  SER A  15      14.101  16.595  -7.633  1.00  0.00    +0.205 C 
ATOM    109  C   SER A  15      15.207  15.848  -8.361  1.00  0.00    +0.264 C 
ATOM    110  O   SER A  15      16.226  16.436  -8.720  1.00  0.00    -0.271 OA
ATOM    111  CB  SER A  15      13.066  17.075  -8.639  1.00  0.00    +0.213 C 
ATOM    112  OG  SER A  15      13.691  17.739  -9.724  1.00  0.00    -0.218 OA
ATOM    113  N   SER A  16      15.008  14.551  -8.579  1.00  0.00    -0.194 N 
ATOM    114  CA  SER A  16      15.195  13.965  -9.903  1.00  0.00    +0.205 C 
ATOM    115  C   SER A  16      14.117  14.429 -10.869  1.00  0.00    +0.264 C 
ATOM    116  O   SER A  16      13.044  14.857 -10.449  1.00  0.00    -0.271 OA
ATOM    117  CB  SER A  16      15.185  12.447  -9.824  1.00  0.00    +0.213 C 
ATOM    118  OG  SER A  16      13.874  11.944 -10.013  1.00  0.00    -0.218 OA
ATOM    119  N   ASP A  17      14.402  14.344 -12.166  1.00  0.00    -0.196 N 
ATOM    120  CA  ASP A  17      13.823  15.273 -13.133  1.00  0.00    +0.184 C 
ATOM    121  C   ASP A  17      12.319  15.084 -13.238  1.00  0.00    +0.262 C 
ATOM    122  O   ASP A  17      11.786  14.063 -12.806  1.00  0.00    -0.271 OA
ATOM    123  CB  ASP A  17      14.455  15.092 -14.504  1.00  0.00    +0.145 C 
ATOM    124  CG  ASP A  17      15.767  15.844 -14.659  1.00  0.00    +0.367 C 
ATOM    125  OD1 ASP A  17      15.780  17.085 -14.507  1.00  0.00    -0.246 OA
ATOM    126  OD2 ASP A  17      16.795  15.190 -14.937  1.00  0.00    -0.246 OA
ATOM    127  N   TRP A  18      11.634  16.068 -13.813  1.00  0.00    -0.196 N 
ATOM    128  CA  TRP A  18      12.205  16.864 -14.894  1.00  0.00    +0.177 C 
ATOM    129  C   TRP A  18      12.200  18.342 -14.541  1.00  0.00    +0.262 C 
ATOM    130  O   TRP A  18      11.525  18.757 -13.599  1.00  0.00    -0.271 OA
ATOM    131  CB  TRP A  18      11.437  16.649 -16.188  1.00  0.00    +0.055 C 
ATOM    132  CG  TRP A  18      11.423  15.226 -16.663  1.00  0.00    -0.014 C 
ATOM    133  CD1 TRP A  18      10.614  14.215 -16.214  1.00  0.00    +0.091 C 
ATOM    134  CD2 TRP A  18      12.254  14.655 -17.675  1.00  0.00    +0.082 C 
ATOM    135  NE1 TRP A  18      10.923  13.065 -16.913  1.00  0.00    -0.248 NA
ATOM    136  CE2 TRP A  18      11.922  13.302 -17.813  1.00  0.00    +0.066 C 
ATOM    137  CE3 TRP A  18      13.269  15.162 -18.498  1.00  0.00    -0.016 C 
ATOM    138  CZ2 TRP A  18      12.595  12.507 -18.748  1.00  0.00    +0.015 C 
ATOM    139  CZ3 TRP A  18      13.910  14.322 -19.416  1.00  0.00    -0.004 C 
ATOM    140  CH2 TRP A  18      13.602  13.064 -19.545  1.00  0.00    +0.001 C 
ATOM    141  N   ILE A  19      12.952  19.139 -15.295  1.00  0.00    -0.196 N 
ATOM    142  CA  ILE A  19      12.658  20.563 -15.425  1.00  0.00    +0.176 C 
ATOM    143  C   ILE A  19      12.160  20.857 -16.832  1.00  0.00    +0.262 C 
ATOM    144  O   ILE A  19      12.655  20.286 -17.801  1.00  0.00    -0.271 OA
ATOM    145  CB  ILE A  19      13.875  21.424 -15.128  1.00  0.00    +0.073 C 
ATOM    146  CG1 ILE A  19      14.700  20.818 -13.993  1.00  0.00    +0.006 C 
ATOM    147  CG2 ILE A  19      13.444  22.837 -14.742  1.00  0.00    +0.211 C 
ATOM    148  CD1 ILE A  19      16.080  21.435 -13.839  1.00  0.00    +0.000 C 
ATOM    149  N   ARG A  20      11.180  21.749 -16.942  1.00  0.00    -0.196 N 
ATOM    150  CA  ARG A  20      11.289  22.890 -17.846  1.00  0.00    +0.173 C 
ATOM    151  C   ARG A  20      12.234  23.940 -17.283  1.00  0.00    +0.262 C 
ATOM    152  O   ARG A  20      12.830  24.711 -18.033  1.00  0.00    -0.271 OA
ATOM    153  CB  ARG A  20       9.928  23.516 -18.098  1.00  0.00    +0.031 C 
ATOM    154  CG  ARG A  20       9.231  23.999 -16.837  1.00  0.00    +0.002 C 
ATOM    155  CD  ARG A  20       7.901  24.667 -17.147  1.00  0.00    +0.000 C 
ATOM    156  NE  ARG A  20       6.999  24.629 -16.002  1.00  0.00    -0.156 N 
ATOM    157  CZ  ARG A  20       5.684  24.820 -16.065  1.00  0.00    +0.247 C 
ATOM    158  NH1 ARG A  20       5.044  25.464 -15.091  1.00  0.00    -0.010 NA
ATOM    159  NH2 ARG A  20       5.002  24.363 -17.110  1.00  0.00    -0.111 NA
ATOM    160  N   ARG A  21      12.371  23.970 -15.961  1.00  0.00    -0.194 N 
ATOM    161  CA  ARG A  21      12.763  25.193 -15.264  1.00  0.00    +0.194 C 
ATOM    162  C   ARG A  21      14.189  25.090 -14.746  1.00  0.00    +0.337 C 
ATOM    163  O   ARG A  21      15.023  25.944 -15.039  1.00  0.00    -0.248 OA
ATOM    164  CB  ARG A  21      11.823  25.483 -14.108  1.00  0.00    +0.035 C 
ATOM    165  CG  ARG A  21      10.481  26.054 -14.534  1.00  0.00    +0.021 C 
ATOM    166  CD  ARG A  21       9.502  24.961 -14.930  1.00  0.00    +0.094 C 
ATOM    167  NE  ARG A  21       8.117  25.399 -14.784  1.00  0.00    -0.167 NA
ATOM    168  CZ  ARG A  21       7.054  24.680 -15.134  1.00  0.00    +0.302 C 
ATOM    169  NH1 ARG A  21       7.124  23.355 -15.206  1.00  0.00    -0.073 NA
ATOM    170  NH2 ARG A  21       5.908  25.297 -15.416  1.00  0.00    -0.144 N 
ATOM    171  OXT ARG A  21      14.528  24.150 -14.028  1.00  0.00    -0.447 OA
ATOM    172  H   MET A   1      28.267  14.072 -21.357  1.00  0.00    +0.000 HD
ATOM    173  H   MET A   1      28.670  13.479 -22.860  1.00  0.00    +0.000 HD
ATOM    174  H   LYS A   2      24.426  13.174 -21.521  1.00  0.00    +0.000 HD
ATOM    175  H   LYS A   2      23.750  18.514 -18.564  1.00  0.00    +0.000 HD
ATOM    176  H   GLN A   3      25.176  11.136 -17.394  1.00  0.00    +0.000 HD
ATOM    177  H   GLN A   3      25.228   7.899 -16.060  1.00  0.00    +0.000 HD
ATOM    178  H   GLN A   3      25.508   6.230 -16.271  1.00  0.00    +0.000 HD
ATOM    179  H   ALA A   4      21.065  11.603 -15.729  1.00  0.00    +0.000 HD
ATOM    180  H   VAL A   5      23.650  13.408 -12.282  1.00  0.00    +0.000 HD
ATOM    181  H   PHE A   6      19.445  13.826 -10.497  1.00  0.00    +0.000 HD
ATOM    182  H   ALA A   7      22.449   9.835 -10.106  1.00  0.00    +0.000 HD
ATOM    183  H   LEU A   9      22.668  14.857  -7.539  1.00  0.00    +0.000 HD
ATOM    184  H   GLN A  10      21.651  14.082  -4.635  1.00  0.00    +0.000 HD
ATOM    185  H   GLN A  10      19.137  19.786  -4.767  1.00  0.00    +0.000 HD
ATOM    186  H   VAL A  11      21.894  17.620  -1.889  1.00  0.00    +0.000 HD
ATOM    187  H   PHE A  12      17.894  19.019  -3.142  1.00  0.00    +0.000 HD
ATOM    188  H   ALA A  13      16.161  19.287   0.306  1.00  0.00    +0.000 HD
ATOM    189  H   GLY A  14      16.914  17.422  -3.932  1.00  0.00    +0.000 HD
ATOM    190  H   SER A  15      14.468  18.635  -7.180  1.00  0.00    +0.000 HD
ATOM    191  H   SER A  15      14.292  17.126 -10.175  1.00  0.00    +0.000 HD
ATOM    192  H   SER A  16      14.729  13.974  -7.831  1.00  0.00    +0.000 HD
ATOM    193  H   SER A  16      13.549  12.207 -10.889  1.00  0.00    +0.000 HD
ATOM    194  H   ASP A  17      15.015  13.641 -12.480  1.00  0.00    +0.000 HD
ATOM    195  H   ASP A  17      16.743  14.261 -15.043  1.00  0.00    +0.000 HD
ATOM    196  H   TRP A  18      10.720  16.264 -13.502  1.00  0.00    +0.000 HD
ATOM    197  H   ILE A  19      13.723  18.761 -15.777  1.00  0.00    +0.000 HD
ATOM    198  H   ARG A  20      10.364  21.637 -16.403  1.00  0.00    +0.000 HD
ATOM    199  H   ARG A  20       7.678  24.480 -16.699  1.00  0.00    +0.000 HD
ATOM    200  H   ARG A  20       4.535  26.040 -15.761  1.00  0.00    +0.000 HD
ATOM    201  H   ARG A  20       5.106  25.954 -14.199  1.00  0.00    +0.000 HD
ATOM    202  H   ARG A  20       4.029  24.501 -17.161  1.00  0.00    +0.000 HD
ATOM    203  H   ARG A  21      12.205  23.151 -15.441  1.00  0.00    +0.000 HD
ATOM    204  H   ARG A  21       7.996  25.599 -13.791  1.00  0.00    +0.000 HD
ATOM    205  H   ARG A  21       6.218  22.980 -15.488  1.00  0.00    +0.000 HD
ATOM    206  H   ARG A  21       7.379  22.978 -14.293  1.00  0.00    +0.000 HD
ENDROOT
TORSDOF 0
