REMARK  Name = /var/folders/yp/yjbh3p597675h2qddgqr02y00000gn/T/tmpq8kxir1z.pdb
REMARK     285 UNITARY VALUES FOR THE UNIT CELL AUTOMATICALLY SET
REMARK     285 BY MDANALYSIS PDBWRITER BECAUSE UNIT CELL INFORMATION
REMARK     285 WAS MISSING.
REMARK     285 PROTEIN DATA BANK CONVENTIONS REQUIRE THAT
REMARK     285 CRYST1 RECORD IS INCLUDED, BUT THE VALUES ON
REMARK     285 THIS RECORD ARE MEANINGLESS.
REMARK     285 UNITARY VALUES FOR THE UNIT CELL AUTOMATICALLY SET
REMARK     285 BY MDANALYSIS PDBWRITER BECAUSE UNIT CELL INFORMATION
REMARK     285 WAS MISSING.
REMARK     285 PROTEIN DATA BANK CONVENTIONS REQUIRE THAT
REMARK     285 CRYST1 RECORD IS INCLUDED, BUT THE VALUES ON
REMARK     285 THIS RECORD ARE MEANINGLESS.
REMARK                            x       y       z     vdW  Elec       q    Type
REMARK                         _______ _______ _______ _____ _____    ______ ____
ROOT
ATOM      1  N   MET A   1      27.029   4.227  10.470  1.00  0.00    -0.123 NA
ATOM      2  CA  MET A   1      27.458   5.549  10.020  1.00  0.00    +0.170 C 
ATOM      3  C   MET A   1      26.403   6.188   9.131  1.00  0.00    +0.259 C 
ATOM      4  O   MET A   1      25.823   5.524   8.273  1.00  0.00    -0.272 OA
ATOM      5  CB  MET A   1      28.773   5.464   9.264  1.00  0.00    +0.040 C 
ATOM      6  CG  MET A   1      29.370   6.819   8.924  1.00  0.00    +0.060 C 
ATOM      7  SD  MET A   1      31.129   6.724   8.507  1.00  0.00    -0.139 S 
ATOM      8  CE  MET A   1      31.648   5.386   9.576  1.00  0.00    +0.069 C 
ATOM      9  N   LYS A   2      26.154   7.478   9.335  1.00  0.00    -0.197 N 
ATOM     10  CA  LYS A   2      25.065   8.161   8.642  1.00  0.00    +0.173 C 
ATOM     11  C   LYS A   2      25.373   8.321   7.162  1.00  0.00    +0.262 C 
ATOM     12  O   LYS A   2      26.386   8.918   6.797  1.00  0.00    -0.271 OA
ATOM     13  CB  LYS A   2      24.804   9.526   9.257  1.00  0.00    +0.031 C 
ATOM     14  CG  LYS A   2      23.527  10.187   8.767  1.00  0.00    +0.009 C 
ATOM     15  CD  LYS A   2      23.752  10.971   7.485  1.00  0.00    +0.049 C 
ATOM     16  CE  LYS A   2      24.938  11.819   7.571  1.00  0.00    +0.096 C 
ATOM     17  NZ  LYS A   2      25.446  12.519   6.562  1.00  0.00    -0.151 NA
ATOM     18  N   GLN A   3      24.502   7.790   6.310  1.00  0.00    -0.196 N 
ATOM     19  CA  GLN A   3      24.160   8.459   5.058  1.00  0.00    +0.173 C 
ATOM     20  C   GLN A   3      22.705   8.901   5.055  1.00  0.00    +0.262 C 
ATOM     21  O   GLN A   3      21.803   8.084   5.230  1.00  0.00    -0.271 OA
ATOM     22  CB  GLN A   3      24.415   7.545   3.869  1.00  0.00    +0.041 C 
ATOM     23  CG  GLN A   3      25.849   7.580   3.367  1.00  0.00    +0.091 C 
ATOM     24  CD  GLN A   3      26.813   6.855   4.293  1.00  0.00    +0.261 C 
ATOM     25  OE1 GLN A   3      26.435   5.896   4.981  1.00  0.00    -0.272 OA
ATOM     26  NE2 GLN A   3      28.064   7.306   4.318  1.00  0.00    -0.088 N 
ATOM     27  N   ALA A   4      22.477  10.196   4.855  1.00  0.00    -0.196 N 
ATOM     28  CA  ALA A   4      21.192  10.673   4.352  1.00  0.00    +0.173 C 
ATOM     29  C   ALA A   4      21.380  11.577   3.145  1.00  0.00    +0.262 C 
ATOM     30  O   ALA A   4      22.311  12.380   3.103  1.00  0.00    -0.271 OA
ATOM     31  CB  ALA A   4      20.432  11.422   5.434  1.00  0.00    +0.033 C 
ATOM     32  N   VAL A   5      20.495  11.449   2.160  1.00  0.00    -0.196 N 
ATOM     33  CA  VAL A   5      20.784  11.929   0.811  1.00  0.00    +0.173 C 
ATOM     34  C   VAL A   5      20.309  13.365   0.663  1.00  0.00    +0.262 C 
ATOM     35  O   VAL A   5      19.148  13.670   0.935  1.00  0.00    -0.271 OA
ATOM     36  CB  VAL A   5      20.126  11.065  -0.253  1.00  0.00    +0.029 C 
ATOM     37  CG1 VAL A   5      19.013  11.832  -0.960  1.00  0.00    +0.002 C 
ATOM     38  CG2 VAL A   5      21.151  10.644  -1.305  1.00  0.00    +0.002 C 
ATOM     39  N   PHE A   6      21.205  14.248   0.233  1.00  0.00    -0.196 N 
ATOM     40  CA  PHE A   6      20.796  15.513  -0.373  1.00  0.00    +0.173 C 
ATOM     41  C   PHE A   6      20.289  15.292  -1.789  1.00  0.00    +0.262 C 
ATOM     42  O   PHE A   6      21.031  14.826  -2.652  1.00  0.00    -0.271 OA
ATOM     43  CB  PHE A   6      21.950  16.501  -0.395  1.00  0.00    +0.037 C 
ATOM     44  CG  PHE A   6      21.759  17.633  -1.362  1.00  0.00    +0.042 C 
ATOM     45  CD1 PHE A   6      20.806  18.613  -1.107  1.00  0.00    +0.081 C 
ATOM     46  CE1 PHE A   6      20.631  19.661  -2.002  1.00  0.00    +0.067 C 
ATOM     47  CD2 PHE A   6      22.534  17.702  -2.513  1.00  0.00    -0.029 C 
ATOM     48  CE2 PHE A   6      22.359  18.748  -3.410  1.00  0.00    -0.029 C 
ATOM     49  CZ  PHE A   6      21.406  19.729  -3.154  1.00  0.00    +0.044 C 
ATOM     50  N   ALA A   7      19.025  15.628  -2.029  1.00  0.00    -0.196 N 
ATOM     51  CA  ALA A   7      18.657  16.991  -2.401  1.00  0.00    +0.174 C 
ATOM     52  C   ALA A   7      18.835  17.943  -1.229  1.00  0.00    +0.232 C 
ATOM     53  O   ALA A   7      18.671  17.550  -0.076  1.00  0.00    -0.274 OA
ATOM     54  CB  ALA A   7      17.219  17.049  -2.889  1.00  0.00    +0.078 C 
ATOM     55  N   LEU A   8      19.169  19.196  -1.526  1.00  0.00    -0.322 NA
ATOM     56  CA  LEU A   8      18.905  20.293  -0.597  1.00  0.00    +0.140 C 
ATOM     57  C   LEU A   8      17.443  20.702  -0.645  1.00  0.00    +0.259 C 
ATOM     58  O   LEU A   8      16.838  20.977   0.390  1.00  0.00    -0.272 OA
ATOM     59  CB  LEU A   8      19.780  21.493  -0.921  1.00  0.00    +0.028 C 
ATOM     60  CG  LEU A   8      21.218  21.438  -0.405  1.00  0.00    +0.004 C 
ATOM     61  CD1 LEU A   8      21.957  22.722  -0.758  1.00  0.00    +0.000 C 
ATOM     62  CD2 LEU A   8      22.047  20.458  -1.229  1.00  0.00    +0.019 C 
ATOM     63  N   LEU A   9      16.874  20.741  -1.847  1.00  0.00    -0.196 N 
ATOM     64  CA  LEU A   9      15.680  21.543  -2.096  1.00  0.00    +0.173 C 
ATOM     65  C   LEU A   9      14.440  20.853  -1.549  1.00  0.00    +0.262 C 
ATOM     66  O   LEU A   9      13.840  21.324  -0.584  1.00  0.00    -0.271 OA
ATOM     67  CB  LEU A   9      15.502  21.798  -3.584  1.00  0.00    +0.031 C 
ATOM     68  CG  LEU A   9      16.098  23.101  -4.119  1.00  0.00    +0.002 C 
ATOM     69  CD1 LEU A   9      16.220  23.043  -5.637  1.00  0.00    +0.000 C 
ATOM     70  CD2 LEU A   9      17.580  23.197  -3.770  1.00  0.00    +0.000 C 
ATOM     71  N   GLN A  10      14.057  19.739  -2.164  1.00  0.00    -0.196 N 
ATOM     72  CA  GLN A  10      14.498  19.428  -3.520  1.00  0.00    +0.173 C 
ATOM     73  C   GLN A  10      13.479  19.895  -4.547  1.00  0.00    +0.262 C 
ATOM     74  O   GLN A  10      13.658  19.684  -5.745  1.00  0.00    -0.271 OA
ATOM     75  CB  GLN A  10      14.736  17.936  -3.685  1.00  0.00    +0.035 C 
ATOM     76  CG  GLN A  10      15.917  17.412  -2.883  1.00  0.00    +0.053 C 
ATOM     77  CD  GLN A  10      16.048  15.899  -2.949  1.00  0.00    +0.204 C 
ATOM     78  OE1 GLN A  10      15.287  15.226  -3.658  1.00  0.00    -0.206 OA
ATOM     79  NE2 GLN A  10      17.014  15.355  -2.213  1.00  0.00    -0.101 NA
ATOM     80  N   VAL A  11      12.409  20.530  -4.079  1.00  0.00    -0.196 N 
ATOM     81  CA  VAL A  11      11.057  20.083  -4.403  1.00  0.00    +0.173 C 
ATOM     82  C   VAL A  11      10.377  21.107  -5.298  1.00  0.00    +0.262 C 
ATOM     83  O   VAL A  11      10.478  22.310  -5.061  1.00  0.00    -0.271 OA
ATOM     84  CB  VAL A  11      10.218  19.863  -3.156  1.00  0.00    +0.029 C 
ATOM     85  CG1 VAL A  11      11.027  19.139  -2.082  1.00  0.00    +0.002 C 
ATOM     86  CG2 VAL A  11       9.763  21.202  -2.580  1.00  0.00    +0.002 C 
ATOM     87  N   PHE A  12       9.685  20.631  -6.330  1.00  0.00    -0.196 N 
ATOM     88  CA  PHE A  12       8.962  21.520  -7.236  1.00  0.00    +0.177 C 
ATOM     89  C   PHE A  12       7.490  21.582  -6.868  1.00  0.00    +0.262 C 
ATOM     90  O   PHE A  12       6.924  22.666  -6.731  1.00  0.00    -0.271 OA
ATOM     91  CB  PHE A  12       9.107  21.061  -8.677  1.00  0.00    +0.057 C 
ATOM     92  CG  PHE A  12      10.520  21.079  -9.181  1.00  0.00    -0.020 A 
ATOM     93  CD1 PHE A  12      11.266  19.907  -9.201  1.00  0.00    -0.004 A 
ATOM     94  CE1 PHE A  12      12.576  19.925  -9.667  1.00  0.00    -0.000 A 
ATOM     95  CD2 PHE A  12      11.082  22.269  -9.628  1.00  0.00    -0.004 A 
ATOM     96  CE2 PHE A  12      12.391  22.288 -10.094  1.00  0.00    -0.000 A 
ATOM     97  CZ  PHE A  12      13.138  21.115 -10.115  1.00  0.00    -0.000 A 
ATOM     98  N   ALA A  13       6.866  20.419  -6.707  1.00  0.00    -0.196 N 
ATOM     99  CA  ALA A  13       5.534  20.188  -7.259  1.00  0.00    +0.173 C 
ATOM    100  C   ALA A  13       4.558  21.258  -6.800  1.00  0.00    +0.262 C 
ATOM    101  O   ALA A  13       4.440  21.526  -5.604  1.00  0.00    -0.271 OA
ATOM    102  CB  ALA A  13       5.011  18.819  -6.854  1.00  0.00    +0.033 C 
ATOM    103  N   GLY A  14       3.858  21.874  -7.749  1.00  0.00    -0.194 N 
ATOM    104  CA  GLY A  14       3.895  23.325  -7.900  1.00  0.00    +0.201 C 
ATOM    105  C   GLY A  14       2.517  23.929  -7.680  1.00  0.00    +0.264 C 
ATOM    106  O   GLY A  14       1.586  23.228  -7.284  1.00  0.00    -0.271 OA
ATOM    107  N   SER A  15       2.385  25.227  -7.934  1.00  0.00    -0.194 N 
ATOM    108  CA  SER A  15       1.074  25.869  -7.954  1.00  0.00    +0.205 C 
ATOM    109  C   SER A  15       0.293  25.490  -9.201  1.00  0.00    +0.264 C 
ATOM    110  O   SER A  15       0.880  25.233 -10.251  1.00  0.00    -0.271 OA
ATOM    111  CB  SER A  15       1.217  27.382  -7.885  1.00  0.00    +0.213 C 
ATOM    112  OG  SER A  15       1.697  27.898  -9.114  1.00  0.00    -0.218 OA
ATOM    113  N   SER A  16      -1.031  25.453  -9.087  1.00  0.00    -0.194 N 
ATOM    114  CA  SER A  16      -1.897  25.513 -10.261  1.00  0.00    +0.205 C 
ATOM    115  C   SER A  16      -1.723  26.825 -11.009  1.00  0.00    +0.264 C 
ATOM    116  O   SER A  16      -1.642  27.887 -10.395  1.00  0.00    -0.271 OA
ATOM    117  CB  SER A  16      -3.354  25.347  -9.862  1.00  0.00    +0.213 C 
ATOM    118  OG  SER A  16      -3.826  26.504  -9.193  1.00  0.00    -0.218 OA
ATOM    119  N   ASP A  17      -1.666  26.753 -12.336  1.00  0.00    -0.196 N 
ATOM    120  CA  ASP A  17      -2.361  27.719 -13.181  1.00  0.00    +0.184 C 
ATOM    121  C   ASP A  17      -3.686  27.158 -13.674  1.00  0.00    +0.262 C 
ATOM    122  O   ASP A  17      -3.754  26.011 -14.111  1.00  0.00    -0.271 OA
ATOM    123  CB  ASP A  17      -1.503  28.116 -14.371  1.00  0.00    +0.145 C 
ATOM    124  CG  ASP A  17      -0.267  28.906 -13.976  1.00  0.00    +0.367 C 
ATOM    125  OD1 ASP A  17      -0.361  30.141 -13.799  1.00  0.00    -0.246 OA
ATOM    126  OD2 ASP A  17       0.812  28.289 -13.842  1.00  0.00    -0.246 OA
ATOM    127  N   TRP A  18      -4.738  27.968 -13.606  1.00  0.00    -0.196 N 
ATOM    128  CA  TRP A  18      -5.986  27.653 -14.296  1.00  0.00    +0.177 C 
ATOM    129  C   TRP A  18      -6.225  28.617 -15.447  1.00  0.00    +0.262 C 
ATOM    130  O   TRP A  18      -5.646  29.702 -15.485  1.00  0.00    -0.271 OA
ATOM    131  CB  TRP A  18      -7.163  27.705 -13.336  1.00  0.00    +0.055 C 
ATOM    132  CG  TRP A  18      -7.589  29.093 -12.963  1.00  0.00    -0.014 C 
ATOM    133  CD1 TRP A  18      -8.594  29.830 -13.534  1.00  0.00    +0.091 C 
ATOM    134  CD2 TRP A  18      -7.024  29.913 -11.938  1.00  0.00    +0.082 C 
ATOM    135  NE1 TRP A  18      -8.657  31.052 -12.897  1.00  0.00    -0.248 NA
ATOM    136  CE2 TRP A  18      -7.710  31.134 -11.915  1.00  0.00    +0.066 C 
ATOM    137  CE3 TRP A  18      -5.985  29.735 -11.016  1.00  0.00    -0.016 C 
ATOM    138  CZ2 TRP A  18      -7.349  32.124 -10.994  1.00  0.00    +0.015 C 
ATOM    139  CZ3 TRP A  18      -5.666  30.758 -10.116  1.00  0.00    -0.004 C 
ATOM    140  CH2 TRP A  18      -6.302  31.894 -10.093  1.00  0.00    +0.001 C 
ATOM    141  N   ILE A  19      -7.080  28.222 -16.387  1.00  0.00    -0.196 N 
ATOM    142  CA  ILE A  19      -7.750  29.183 -17.258  1.00  0.00    +0.173 C 
ATOM    143  C   ILE A  19      -9.254  29.105 -17.047  1.00  0.00    +0.262 C 
ATOM    144  O   ILE A  19      -9.849  28.037 -17.184  1.00  0.00    -0.271 OA
ATOM    145  CB  ILE A  19      -7.430  28.942 -18.724  1.00  0.00    +0.029 C 
ATOM    146  CG1 ILE A  19      -5.921  28.823 -18.934  1.00  0.00    +0.002 C 
ATOM    147  CG2 ILE A  19      -7.971  30.082 -19.582  1.00  0.00    +0.002 C 
ATOM    148  CD1 ILE A  19      -5.457  29.241 -20.320  1.00  0.00    +0.000 C 
ATOM    149  N   ARG A  20      -9.868  30.236 -16.714  1.00  0.00    -0.196 N 
ATOM    150  CA  ARG A  20     -11.143  30.615 -17.319  1.00  0.00    +0.173 C 
ATOM    151  C   ARG A  20     -10.944  31.103 -18.745  1.00  0.00    +0.262 C 
ATOM    152  O   ARG A  20     -11.791  30.878 -19.607  1.00  0.00    -0.271 OA
ATOM    153  CB  ARG A  20     -11.831  31.697 -16.503  1.00  0.00    +0.033 C 
ATOM    154  CG  ARG A  20     -11.235  33.083 -16.695  1.00  0.00    +0.021 C 
ATOM    155  CD  ARG A  20     -10.179  33.392 -15.646  1.00  0.00    +0.088 C 
ATOM    156  NE  ARG A  20      -9.341  34.520 -16.041  1.00  0.00    -0.219 NA
ATOM    157  CZ  ARG A  20      -8.171  34.414 -16.664  1.00  0.00    +0.128 C 
ATOM    158  NH1 ARG A  20      -7.608  33.224 -16.852  1.00  0.00    -0.135 NA
ATOM    159  NH2 ARG A  20      -7.556  35.510 -17.100  1.00  0.00    +0.458 N 
ATOM    160  N   ARG A  21      -9.822  31.774 -18.993  1.00  0.00    -0.194 N 
ATOM    161  CA  ARG A  21      -9.787  32.865 -19.965  1.00  0.00    +0.198 C 
ATOM    162  C   ARG A  21      -9.504  32.338 -21.362  1.00  0.00    +0.384 C 
ATOM    163  O   ARG A  21     -10.362  32.408 -22.242  1.00  0.00    -0.244 OA
ATOM    164  CB  ARG A  21      -8.736  33.894 -19.588  1.00  0.00    +0.033 C 
ATOM    165  CG  ARG A  21      -8.951  34.519 -18.218  1.00  0.00    +0.016 C 
ATOM    166  CD  ARG A  21      -8.115  35.775 -18.034  1.00  0.00    +0.021 C 
ATOM    167  NE  ARG A  21      -6.704  35.459 -17.829  1.00  0.00    -0.317 NA
ATOM    168  CZ  ARG A  21      -6.129  35.293 -16.641  1.00  0.00    +0.178 C 
ATOM    169  NH1 ARG A  21      -5.798  36.343 -15.895  1.00  0.00    -0.118 NA
ATOM    170  NH2 ARG A  21      -5.882  34.064 -16.197  1.00  0.00    -0.118 NA
ATOM    171  OXT ARG A  21      -8.415  31.835 -21.633  1.00  0.00    -0.244 OA
ATOM    172  H   MET A   1      26.146   4.309  10.974  1.00  0.00    +0.000 HD
ATOM    173  H   MET A   1      27.738   3.832  11.089  1.00  0.00    +0.000 HD
ATOM    174  H   LYS A   2      26.716   7.983   9.965  1.00  0.00    +0.000 HD
ATOM    175  H   LYS A   2      25.018  12.487   5.676  1.00  0.00    +0.000 HD
ATOM    176  H   GLN A   3      24.079   6.928   6.527  1.00  0.00    +0.000 HD
ATOM    177  H   GLN A   3      28.324   8.071   3.755  1.00  0.00    +0.000 HD
ATOM    178  H   GLN A   3      28.731   6.875   4.900  1.00  0.00    +0.000 HD
ATOM    179  H   ALA A   4      23.189  10.847   5.050  1.00  0.00    +0.000 HD
ATOM    180  H   VAL A   5      19.628  11.022   2.343  1.00  0.00    +0.000 HD
ATOM    181  H   PHE A   6      22.164  14.045   0.324  1.00  0.00    +0.000 HD
ATOM    182  H   ALA A   7      18.322  14.942  -1.954  1.00  0.00    +0.000 HD
ATOM    183  H   LEU A   9      17.266  20.219  -2.583  1.00  0.00    +0.000 HD
ATOM    184  H   GLN A  10      13.463  19.109  -1.694  1.00  0.00    +0.000 HD
ATOM    185  H   GLN A  10      14.660  15.813  -4.107  1.00  0.00    +0.000 HD
ATOM    186  H   GLN A  10      16.734  14.418  -1.923  1.00  0.00    +0.000 HD
ATOM    187  H   GLN A  10      17.178  15.933  -1.388  1.00  0.00    +0.000 HD
ATOM    188  H   VAL A  11      12.530  21.318  -3.502  1.00  0.00    +0.000 HD
ATOM    189  H   PHE A  12       9.659  19.660  -6.486  1.00  0.00    +0.000 HD
ATOM    190  H   ALA A  13       7.311  19.698  -6.205  1.00  0.00    +0.000 HD
ATOM    191  H   GLY A  14       3.304  21.339  -8.362  1.00  0.00    +0.000 HD
ATOM    192  H   SER A  15       3.189  25.767  -8.113  1.00  0.00    +0.000 HD
ATOM    193  H   SER A  15       1.070  27.683  -9.822  1.00  0.00    +0.000 HD
ATOM    194  H   SER A  16      -1.436  25.385  -8.193  1.00  0.00    +0.000 HD
ATOM    195  H   SER A  16      -3.303  26.648  -8.388  1.00  0.00    +0.000 HD
ATOM    196  H   ASP A  17      -1.143  26.032 -12.757  1.00  0.00    +0.000 HD
ATOM    197  H   ASP A  17       0.843  27.363 -13.984  1.00  0.00    +0.000 HD
ATOM    198  H   TRP A  18      -4.676  28.797 -13.079  1.00  0.00    +0.000 HD
ATOM    199  H   ILE A  19      -7.264  27.261 -16.497  1.00  0.00    +0.000 HD
ATOM    200  H   ARG A  20      -9.456  30.831 -16.046  1.00  0.00    +0.000 HD
ATOM    201  H   ARG A  20      -9.924  35.092 -16.652  1.00  0.00    +0.000 HD
ATOM    202  H   ARG A  20      -6.721  33.341 -17.343  1.00  0.00    +0.000 HD
ATOM    203  H   ARG A  20      -8.230  32.638 -17.409  1.00  0.00    +0.000 HD
ATOM    204  H   ARG A  21      -8.999  31.530 -18.512  1.00  0.00    +0.000 HD
ATOM    205  H   ARG A  21      -6.056  37.201 -16.382  1.00  0.00    +0.000 HD
ATOM    206  H   ARG A  21      -4.793  36.336 -15.726  1.00  0.00    +0.000 HD
ATOM    207  H   ARG A  21      -6.195  33.383 -16.889  1.00  0.00    +0.000 HD
ATOM    208  H   ARG A  21      -6.380  33.912 -15.320  1.00  0.00    +0.000 HD
ATOM    209  H   ARG A  21      -7.751  31.774 -20.976  1.00  0.00    +0.000 HD
ENDROOT
TORSDOF 0
