REMARK  Name = /var/folders/yp/yjbh3p597675h2qddgqr02y00000gn/T/tmp7vo3rww3.pdb
REMARK     285 UNITARY VALUES FOR THE UNIT CELL AUTOMATICALLY SET
REMARK     285 BY MDANALYSIS PDBWRITER BECAUSE UNIT CELL INFORMATION
REMARK     285 WAS MISSING.
REMARK     285 PROTEIN DATA BANK CONVENTIONS REQUIRE THAT
REMARK     285 CRYST1 RECORD IS INCLUDED, BUT THE VALUES ON
REMARK     285 THIS RECORD ARE MEANINGLESS.
REMARK     285 UNITARY VALUES FOR THE UNIT CELL AUTOMATICALLY SET
REMARK     285 BY MDANALYSIS PDBWRITER BECAUSE UNIT CELL INFORMATION
REMARK     285 WAS MISSING.
REMARK     285 PROTEIN DATA BANK CONVENTIONS REQUIRE THAT
REMARK     285 CRYST1 RECORD IS INCLUDED, BUT THE VALUES ON
REMARK     285 THIS RECORD ARE MEANINGLESS.
REMARK                            x       y       z     vdW  Elec       q    Type
REMARK                         _______ _______ _______ _____ _____    ______ ____
ROOT
ATOM      1  N   MET A   1      -9.449  -0.929 -22.644  1.00  0.00    -0.123 NA
ATOM      2  CA  MET A   1      -9.394   0.529 -22.585  1.00  0.00    +0.170 C 
ATOM      3  C   MET A   1      -8.209   1.062 -23.373  1.00  0.00    +0.259 C 
ATOM      4  O   MET A   1      -7.098   0.549 -23.254  1.00  0.00    -0.272 OA
ATOM      5  CB  MET A   1      -9.303   1.011 -21.145  1.00  0.00    +0.040 C 
ATOM      6  CG  MET A   1      -9.346   2.523 -21.003  1.00  0.00    +0.060 C 
ATOM      7  SD  MET A   1     -10.722   3.271 -21.913  1.00  0.00    -0.139 S 
ATOM      8  CE  MET A   1     -12.065   2.196 -21.420  1.00  0.00    +0.069 C 
ATOM      9  N   LYS A   2      -8.446   2.093 -24.180  1.00  0.00    -0.197 N 
ATOM     10  CA  LYS A   2      -7.361   2.940 -24.667  1.00  0.00    +0.173 C 
ATOM     11  C   LYS A   2      -6.689   3.680 -23.520  1.00  0.00    +0.262 C 
ATOM     12  O   LYS A   2      -7.326   4.476 -22.833  1.00  0.00    -0.271 OA
ATOM     13  CB  LYS A   2      -7.874   3.943 -25.686  1.00  0.00    +0.031 C 
ATOM     14  CG  LYS A   2      -6.787   4.817 -26.291  1.00  0.00    +0.009 C 
ATOM     15  CD  LYS A   2      -7.359   5.852 -27.244  1.00  0.00    +0.049 C 
ATOM     16  CE  LYS A   2      -8.254   6.782 -26.559  1.00  0.00    +0.096 C 
ATOM     17  NZ  LYS A   2      -9.024   7.679 -27.166  1.00  0.00    -0.151 NA
ATOM     18  N   GLN A   3      -5.402   3.417 -23.315  1.00  0.00    -0.196 N 
ATOM     19  CA  GLN A   3      -4.511   4.405 -22.713  1.00  0.00    +0.173 C 
ATOM     20  C   GLN A   3      -4.049   5.424 -23.742  1.00  0.00    +0.262 C 
ATOM     21  O   GLN A   3      -3.556   5.057 -24.807  1.00  0.00    -0.271 OA
ATOM     22  CB  GLN A   3      -3.300   3.733 -22.086  1.00  0.00    +0.041 C 
ATOM     23  CG  GLN A   3      -2.545   4.619 -21.109  1.00  0.00    +0.091 C 
ATOM     24  CD  GLN A   3      -2.282   3.936 -19.777  1.00  0.00    +0.261 C 
ATOM     25  OE1 GLN A   3      -2.238   2.701 -19.694  1.00  0.00    -0.272 OA
ATOM     26  NE2 GLN A   3      -2.102   4.732 -18.727  1.00  0.00    -0.088 N 
ATOM     27  N   ALA A   4      -4.210   6.705 -23.425  1.00  0.00    -0.196 N 
ATOM     28  CA  ALA A   4      -3.153   7.686 -23.661  1.00  0.00    +0.173 C 
ATOM     29  C   ALA A   4      -1.904   7.344 -22.863  1.00  0.00    +0.262 C 
ATOM     30  O   ALA A   4      -1.994   6.820 -21.754  1.00  0.00    -0.271 OA
ATOM     31  CB  ALA A   4      -3.622   9.084 -23.294  1.00  0.00    +0.033 C 
ATOM     32  N   VAL A   5      -0.737   7.640 -23.428  1.00  0.00    -0.196 N 
ATOM     33  CA  VAL A   5       0.507   7.600 -22.665  1.00  0.00    +0.173 C 
ATOM     34  C   VAL A   5       0.906   9.008 -22.257  1.00  0.00    +0.262 C 
ATOM     35  O   VAL A   5       0.831   9.937 -23.059  1.00  0.00    -0.271 OA
ATOM     36  CB  VAL A   5       1.638   6.963 -23.457  1.00  0.00    +0.029 C 
ATOM     37  CG1 VAL A   5       2.435   8.026 -24.211  1.00  0.00    +0.002 C 
ATOM     38  CG2 VAL A   5       2.596   6.229 -22.521  1.00  0.00    +0.002 C 
ATOM     39  N   PHE A   6       1.331   9.170 -21.006  1.00  0.00    -0.196 N 
ATOM     40  CA  PHE A   6       2.314  10.193 -20.663  1.00  0.00    +0.173 C 
ATOM     41  C   PHE A   6       3.710   9.761 -21.081  1.00  0.00    +0.262 C 
ATOM     42  O   PHE A   6       4.363   8.994 -20.376  1.00  0.00    -0.271 OA
ATOM     43  CB  PHE A   6       2.297  10.482 -19.171  1.00  0.00    +0.007 C 
ATOM     44  CG  PHE A   6       3.400  11.393 -18.717  1.00  0.00    -0.008 A 
ATOM     45  CD1 PHE A   6       3.699  11.500 -17.364  1.00  0.00    -0.003 A 
ATOM     46  CE1 PHE A   6       4.721  12.343 -16.943  1.00  0.00    -0.000 A 
ATOM     47  CD2 PHE A   6       4.123  12.126 -19.650  1.00  0.00    +0.050 A 
ATOM     48  CE2 PHE A   6       5.146  12.970 -19.229  1.00  0.00    +0.015 A 
ATOM     49  CZ  PHE A   6       5.444  13.078 -17.876  1.00  0.00    +0.001 A 
ATOM     50  N   ALA A   7       4.168  10.252 -22.229  1.00  0.00    -0.196 N 
ATOM     51  CA  ALA A   7       5.461  10.925 -22.307  1.00  0.00    +0.172 C 
ATOM     52  C   ALA A   7       5.492  12.156 -21.415  1.00  0.00    +0.250 C 
ATOM     53  O   ALA A   7       6.554  12.552 -20.935  1.00  0.00    -0.273 OA
ATOM     54  CB  ALA A   7       5.774  11.328 -23.739  1.00  0.00    +0.033 C 
ATOM     55  N   LEU A   8       4.330  12.761 -21.194  1.00  0.00    -0.251 N 
ATOM     56  CA  LEU A   8       3.103  12.311 -21.844  1.00  0.00    +0.158 C 
ATOM     57  C   LEU A   8       2.789  13.168 -23.061  1.00  0.00    +0.260 C 
ATOM     58  O   LEU A   8       1.938  12.810 -23.874  1.00  0.00    -0.272 OA
ATOM     59  CB  LEU A   8       1.932  12.357 -20.877  1.00  0.00    +0.032 C 
ATOM     60  CG  LEU A   8       1.751  11.131 -19.981  1.00  0.00    +0.029 C 
ATOM     61  CD1 LEU A   8       0.769  11.437 -18.857  1.00  0.00    +0.002 C 
ATOM     62  CD2 LEU A   8       3.001  10.895 -19.138  1.00  0.00    +0.028 C 
ATOM     63  N   LEU A   9       3.476  14.301 -23.185  1.00  0.00    -0.196 N 
ATOM     64  CA  LEU A   9       2.804  15.598 -23.210  1.00  0.00    +0.173 C 
ATOM     65  C   LEU A   9       1.955  15.743 -24.462  1.00  0.00    +0.262 C 
ATOM     66  O   LEU A   9       2.442  15.548 -25.573  1.00  0.00    -0.271 OA
ATOM     67  CB  LEU A   9       3.818  16.728 -23.149  1.00  0.00    +0.031 C 
ATOM     68  CG  LEU A   9       3.612  17.759 -22.038  1.00  0.00    +0.002 C 
ATOM     69  CD1 LEU A   9       2.637  18.839 -22.493  1.00  0.00    +0.000 C 
ATOM     70  CD2 LEU A   9       4.856  18.625 -21.872  1.00  0.00    +0.000 C 
ATOM     71  N   GLN A  10       0.683  16.088 -24.281  1.00  0.00    -0.196 N 
ATOM     72  CA  GLN A  10      -0.385  15.092 -24.308  1.00  0.00    +0.173 C 
ATOM     73  C   GLN A  10      -0.824  14.801 -25.733  1.00  0.00    +0.262 C 
ATOM     74  O   GLN A  10      -0.772  15.676 -26.596  1.00  0.00    -0.271 OA
ATOM     75  CB  GLN A  10      -1.580  15.558 -23.494  1.00  0.00    +0.031 C 
ATOM     76  CG  GLN A  10      -1.782  14.782 -22.203  1.00  0.00    +0.002 C 
ATOM     77  CD  GLN A  10      -2.830  15.408 -21.296  1.00  0.00    +0.039 C 
ATOM     78  OE1 GLN A  10      -2.701  16.570 -20.883  1.00  0.00    -0.219 OA
ATOM     79  NE2 GLN A  10      -3.873  14.646 -20.981  1.00  0.00    -0.100 NA
ATOM     80  N   VAL A  11      -1.260  13.569 -25.982  1.00  0.00    -0.196 N 
ATOM     81  CA  VAL A  11      -2.592  13.331 -26.530  1.00  0.00    +0.173 C 
ATOM     82  C   VAL A  11      -3.369  12.405 -25.608  1.00  0.00    +0.262 C 
ATOM     83  O   VAL A  11      -2.833  11.407 -25.129  1.00  0.00    -0.271 OA
ATOM     84  CB  VAL A  11      -2.533  12.725 -27.924  1.00  0.00    +0.029 C 
ATOM     85  CG1 VAL A  11      -3.400  13.522 -28.896  1.00  0.00    +0.002 C 
ATOM     86  CG2 VAL A  11      -1.100  12.740 -28.451  1.00  0.00    +0.002 C 
ATOM     87  N   PHE A  12      -4.633  12.736 -25.357  1.00  0.00    -0.196 N 
ATOM     88  CA  PHE A  12      -4.977  14.016 -24.747  1.00  0.00    +0.177 C 
ATOM     89  C   PHE A  12      -4.704  13.990 -23.252  1.00  0.00    +0.263 C 
ATOM     90  O   PHE A  12      -5.183  13.105 -22.545  1.00  0.00    -0.271 OA
ATOM     91  CB  PHE A  12      -6.438  14.357 -24.990  1.00  0.00    +0.057 C 
ATOM     92  CG  PHE A  12      -7.085  13.531 -26.061  1.00  0.00    -0.020 A 
ATOM     93  CD1 PHE A  12      -6.469  13.394 -27.299  1.00  0.00    -0.004 A 
ATOM     94  CE1 PHE A  12      -7.070  12.628 -28.292  1.00  0.00    -0.000 A 
ATOM     95  CD2 PHE A  12      -8.300  12.901 -25.814  1.00  0.00    -0.004 A 
ATOM     96  CE2 PHE A  12      -8.898  12.135 -26.807  1.00  0.00    -0.000 A 
ATOM     97  CZ  PHE A  12      -8.284  11.998 -28.047  1.00  0.00    -0.000 A 
ATOM     98  N   ALA A  13      -3.933  14.961 -22.769  1.00  0.00    -0.178 N 
ATOM     99  CA  ALA A  13      -4.243  15.617 -21.502  1.00  0.00    +0.251 C 
ATOM    100  C   ALA A  13      -5.563  16.366 -21.583  1.00  0.00    +0.279 C 
ATOM    101  O   ALA A  13      -5.793  17.128 -22.521  1.00  0.00    -0.270 OA
ATOM    102  CB  ALA A  13      -3.136  16.583 -21.111  1.00  0.00    +0.195 C 
ATOM    103  N   GLY A  14      -6.432  16.151 -20.598  1.00  0.00    -0.193 N 
ATOM    104  CA  GLY A  14      -7.435  17.149 -20.238  1.00  0.00    +0.202 C 
ATOM    105  C   GLY A  14      -8.580  16.512 -19.467  1.00  0.00    +0.266 C 
ATOM    106  O   GLY A  14      -8.423  15.436 -18.890  1.00  0.00    -0.271 OA
ATOM    107  N   SER A  15      -9.733  17.175 -19.455  1.00  0.00    -0.167 N 
ATOM    108  CA  SER A  15     -10.762  16.895 -18.457  1.00  0.00    +0.299 C 
ATOM    109  C   SER A  15     -11.344  15.503 -18.641  1.00  0.00    +0.291 C 
ATOM    110  O   SER A  15     -11.357  14.974 -19.751  1.00  0.00    -0.269 OA
ATOM    111  CB  SER A  15     -11.876  17.926 -18.532  1.00  0.00    +0.324 C 
ATOM    112  OG  SER A  15     -12.514  17.886 -19.796  1.00  0.00    -0.185 OA
ATOM    113  N   SER A  16     -11.827  14.910 -17.553  1.00  0.00    -0.191 N 
ATOM    114  CA  SER A  16     -13.148  14.286 -17.551  1.00  0.00    +0.206 C 
ATOM    115  C   SER A  16     -14.247  15.320 -17.737  1.00  0.00    +0.264 C 
ATOM    116  O   SER A  16     -15.238  15.063 -18.420  1.00  0.00    -0.271 OA
ATOM    117  CB  SER A  16     -13.380  13.527 -16.255  1.00  0.00    +0.213 C 
ATOM    118  OG  SER A  16     -12.940  14.288 -15.143  1.00  0.00    -0.218 OA
ATOM    119  N   ASP A  17     -14.074  16.491 -17.131  1.00  0.00    -0.196 N 
ATOM    120  CA  ASP A  17     -13.377  16.589 -15.852  1.00  0.00    +0.178 C 
ATOM    121  C   ASP A  17     -14.351  16.882 -14.722  1.00  0.00    +0.262 C 
ATOM    122  O   ASP A  17     -15.520  17.179 -14.965  1.00  0.00    -0.271 OA
ATOM    123  CB  ASP A  17     -12.311  17.670 -15.896  1.00  0.00    +0.092 C 
ATOM    124  CG  ASP A  17     -11.265  17.431 -16.973  1.00  0.00    +0.241 C 
ATOM    125  OD1 ASP A  17     -10.662  16.337 -17.006  1.00  0.00    -0.304 OA
ATOM    126  OD2 ASP A  17     -11.042  18.345 -17.795  1.00  0.00    -0.300 OA
ATOM    127  N   TRP A  18     -13.870  16.800 -13.485  1.00  0.00    -0.196 N 
ATOM    128  CA  TRP A  18     -14.322  17.705 -12.431  1.00  0.00    +0.177 C 
ATOM    129  C   TRP A  18     -13.165  18.528 -11.890  1.00  0.00    +0.262 C 
ATOM    130  O   TRP A  18     -12.004  18.151 -12.045  1.00  0.00    -0.271 OA
ATOM    131  CB  TRP A  18     -14.970  16.931 -11.296  1.00  0.00    +0.055 C 
ATOM    132  CG  TRP A  18     -14.014  16.102 -10.494  1.00  0.00    -0.016 C 
ATOM    133  CD1 TRP A  18     -13.603  14.822 -10.762  1.00  0.00    +0.148 C 
ATOM    134  CD2 TRP A  18     -13.347  16.490  -9.289  1.00  0.00    +0.011 A 
ATOM    135  NE1 TRP A  18     -12.722  14.429  -9.775  1.00  0.00    -0.266 NA
ATOM    136  CE2 TRP A  18     -12.545  15.427  -8.862  1.00  0.00    +0.076 A 
ATOM    137  CE3 TRP A  18     -13.348  17.657  -8.515  1.00  0.00    +0.001 A 
ATOM    138  CZ2 TRP A  18     -11.780  15.551  -7.695  1.00  0.00    +0.019 A 
ATOM    139  CZ3 TRP A  18     -12.564  17.729  -7.357  1.00  0.00    +0.000 A 
ATOM    140  CH2 TRP A  18     -11.818  16.742  -6.958  1.00  0.00    +0.002 A 
ATOM    141  N   ILE A  19     -13.479  19.653 -11.255  1.00  0.00    -0.196 N 
ATOM    142  CA  ILE A  19     -12.845  20.016  -9.991  1.00  0.00    +0.173 C 
ATOM    143  C   ILE A  19     -13.871  19.969  -8.870  1.00  0.00    +0.262 C 
ATOM    144  O   ILE A  19     -15.018  20.373  -9.055  1.00  0.00    -0.271 OA
ATOM    145  CB  ILE A  19     -12.217  21.399 -10.047  1.00  0.00    +0.029 C 
ATOM    146  CG1 ILE A  19     -11.371  21.557 -11.307  1.00  0.00    +0.004 C 
ATOM    147  CG2 ILE A  19     -11.345  21.638  -8.816  1.00  0.00    +0.002 C 
ATOM    148  CD1 ILE A  19     -10.473  22.783 -11.298  1.00  0.00    +0.025 C 
ATOM    149  N   ARG A  20     -13.460  19.475  -7.706  1.00  0.00    -0.196 N 
ATOM    150  CA  ARG A  20     -13.406  20.303  -6.504  1.00  0.00    +0.173 C 
ATOM    151  C   ARG A  20     -12.241  21.277  -6.568  1.00  0.00    +0.262 C 
ATOM    152  O   ARG A  20     -11.200  21.047  -5.952  1.00  0.00    -0.271 OA
ATOM    153  CB  ARG A  20     -13.282  19.443  -5.257  1.00  0.00    +0.033 C 
ATOM    154  CG  ARG A  20     -12.918  20.226  -4.006  1.00  0.00    +0.029 C 
ATOM    155  CD  ARG A  20     -12.819  19.324  -2.786  1.00  0.00    +0.129 C 
ATOM    156  NE  ARG A  20     -13.164  20.037  -1.560  1.00  0.00    -0.234 NA
ATOM    157  CZ  ARG A  20     -12.573  19.851  -0.383  1.00  0.00    +0.284 C 
ATOM    158  NH1 ARG A  20     -11.634  18.919  -0.235  1.00  0.00    -0.104 N 
ATOM    159  NH2 ARG A  20     -12.923  20.605   0.655  1.00  0.00    -0.104 N 
ATOM    160  N   ARG A  21     -12.411  22.366  -7.311  1.00  0.00    -0.194 N 
ATOM    161  CA  ARG A  21     -11.321  23.308  -7.541  1.00  0.00    +0.198 C 
ATOM    162  C   ARG A  21     -11.278  24.367  -6.453  1.00  0.00    +0.384 C 
ATOM    163  O   ARG A  21     -10.282  24.492  -5.742  1.00  0.00    -0.244 OA
ATOM    164  CB  ARG A  21     -11.464  23.981  -8.898  1.00  0.00    +0.035 C 
ATOM    165  CG  ARG A  21     -10.900  23.166 -10.049  1.00  0.00    +0.027 C 
ATOM    166  CD  ARG A  21     -11.220  23.795 -11.397  1.00  0.00    +0.107 C 
ATOM    167  NE  ARG A  21     -12.394  24.660 -11.322  1.00  0.00    -0.236 NA
ATOM    168  CZ  ARG A  21     -12.998  25.209 -12.371  1.00  0.00    +0.284 C 
ATOM    169  NH1 ARG A  21     -13.594  26.395 -12.267  1.00  0.00    -0.104 N 
ATOM    170  NH2 ARG A  21     -13.008  24.567 -13.536  1.00  0.00    -0.104 N 
ATOM    171  OXT ARG A  21     -12.236  25.116  -6.269  1.00  0.00    -0.244 OA
ATOM    172  H   MET A   1     -10.251  -1.261 -22.108  1.00  0.00    +0.000 HD
ATOM    173  H   MET A   1      -8.592  -1.317 -22.249  1.00  0.00    +0.000 HD
ATOM    174  H   LYS A   2      -9.370   2.288 -24.455  1.00  0.00    +0.000 HD
ATOM    175  H   LYS A   2      -9.017   7.750 -28.148  1.00  0.00    +0.000 HD
ATOM    176  H   GLN A   3      -5.042   2.538 -23.575  1.00  0.00    +0.000 HD
ATOM    177  H   GLN A   3      -1.928   4.344 -17.839  1.00  0.00    +0.000 HD
ATOM    178  H   GLN A   3      -2.142   5.710 -18.838  1.00  0.00    +0.000 HD
ATOM    179  H   ALA A   4      -5.059   7.000 -23.023  1.00  0.00    +0.000 HD
ATOM    180  H   VAL A   5      -0.711   7.892 -24.379  1.00  0.00    +0.000 HD
ATOM    181  H   PHE A   6       0.976   8.587 -20.298  1.00  0.00    +0.000 HD
ATOM    182  H   ALA A   7       3.623  10.160 -23.044  1.00  0.00    +0.000 HD
ATOM    183  H   LEU A   9       4.457  14.264 -23.261  1.00  0.00    +0.000 HD
ATOM    184  H   GLN A  10       0.457  17.034 -24.125  1.00  0.00    +0.000 HD
ATOM    185  H   GLN A  10      -2.500  17.445 -20.517  1.00  0.00    +0.000 HD
ATOM    186  H   GLN A  10      -3.953  14.751 -19.970  1.00  0.00    +0.000 HD
ATOM    187  H   GLN A  10      -2.898  14.477 -21.230  1.00  0.00    +0.000 HD
ATOM    188  H   VAL A  11      -0.672  12.802 -25.792  1.00  0.00    +0.000 HD
ATOM    189  H   PHE A  12      -5.351  12.104 -25.588  1.00  0.00    +0.000 HD
ATOM    190  H   ALA A  13      -3.138  15.244 -23.277  1.00  0.00    +0.000 HD
ATOM    191  H   GLY A  14      -6.398  15.301 -20.101  1.00  0.00    +0.000 HD
ATOM    192  H   SER A  15      -9.897  17.870 -20.133  1.00  0.00    +0.000 HD
ATOM    193  H   SER A  15     -11.890  17.561 -20.463  1.00  0.00    +0.000 HD
ATOM    194  H   SER A  16     -11.284  14.892 -16.732  1.00  0.00    +0.000 HD
ATOM    195  H   SER A  16     -13.437  15.120 -15.103  1.00  0.00    +0.000 HD
ATOM    196  H   ASP A  17     -14.424  17.308 -17.554  1.00  0.00    +0.000 HD
ATOM    197  H   TRP A  18     -13.195  16.115 -13.274  1.00  0.00    +0.000 HD
ATOM    198  H   ILE A  19     -14.154  20.255 -11.646  1.00  0.00    +0.000 HD
ATOM    199  H   ARG A  20     -13.186  18.531  -7.653  1.00  0.00    +0.000 HD
ATOM    200  H   ARG A  20     -11.203  18.790   0.641  1.00  0.00    +0.000 HD
ATOM    201  H   ARG A  20     -11.370  18.359  -1.000  1.00  0.00    +0.000 HD
ATOM    202  H   ARG A  20     -12.490  20.472   1.529  1.00  0.00    +0.000 HD
ATOM    203  H   ARG A  20     -13.616  21.296   0.549  1.00  0.00    +0.000 HD
ATOM    204  H   ARG A  21     -13.292  22.541  -7.714  1.00  0.00    +0.000 HD
ATOM    205  H   ARG A  21      -9.542  23.931  -5.869  1.00  0.00    +0.000 HD
ATOM    206  H   ARG A  21     -13.590  26.874 -11.406  1.00  0.00    +0.000 HD
ATOM    207  H   ARG A  21     -14.039  26.792 -13.050  1.00  0.00    +0.000 HD
ATOM    208  H   ARG A  21     -12.568  23.689 -13.618  1.00  0.00    +0.000 HD
ATOM    209  H   ARG A  21     -13.454  24.968 -14.315  1.00  0.00    +0.000 HD
ENDROOT
TORSDOF 0
