REMARK  Name = /var/folders/yp/yjbh3p597675h2qddgqr02y00000gn/T/tmpnnysj1je.pdb
REMARK     285 UNITARY VALUES FOR THE UNIT CELL AUTOMATICALLY SET
REMARK     285 BY MDANALYSIS PDBWRITER BECAUSE UNIT CELL INFORMATION
REMARK     285 WAS MISSING.
REMARK     285 PROTEIN DATA BANK CONVENTIONS REQUIRE THAT
REMARK     285 CRYST1 RECORD IS INCLUDED, BUT THE VALUES ON
REMARK     285 THIS RECORD ARE MEANINGLESS.
REMARK     285 UNITARY VALUES FOR THE UNIT CELL AUTOMATICALLY SET
REMARK     285 BY MDANALYSIS PDBWRITER BECAUSE UNIT CELL INFORMATION
REMARK     285 WAS MISSING.
REMARK     285 PROTEIN DATA BANK CONVENTIONS REQUIRE THAT
REMARK     285 CRYST1 RECORD IS INCLUDED, BUT THE VALUES ON
REMARK     285 THIS RECORD ARE MEANINGLESS.
REMARK                            x       y       z     vdW  Elec       q    Type
REMARK                         _______ _______ _______ _____ _____    ______ ____
ROOT
ATOM      1  N   MET A   1     -18.190 -19.180  27.004  1.00  0.00    -0.123 NA
ATOM      2  CA  MET A   1     -19.518 -18.695  26.638  1.00  0.00    +0.170 C 
ATOM      3  C   MET A   1     -20.590 -19.699  27.033  1.00  0.00    +0.259 C 
ATOM      4  O   MET A   1     -20.420 -20.901  26.842  1.00  0.00    -0.272 OA
ATOM      5  CB  MET A   1     -19.603 -18.423  25.145  1.00  0.00    +0.040 C 
ATOM      6  CG  MET A   1     -20.875 -17.703  24.727  1.00  0.00    +0.060 C 
ATOM      7  SD  MET A   1     -20.956 -16.006  25.353  1.00  0.00    -0.139 S 
ATOM      8  CE  MET A   1     -19.215 -15.595  25.412  1.00  0.00    +0.069 C 
ATOM      9  N   LYS A   2     -21.695 -19.205  27.581  1.00  0.00    -0.197 N 
ATOM     10  CA  LYS A   2     -22.886 -20.029  27.767  1.00  0.00    +0.173 C 
ATOM     11  C   LYS A   2     -23.544 -20.346  26.433  1.00  0.00    +0.261 C 
ATOM     12  O   LYS A   2     -23.745 -19.454  25.609  1.00  0.00    -0.271 OA
ATOM     13  CB  LYS A   2     -23.888 -19.335  28.675  1.00  0.00    +0.031 C 
ATOM     14  CG  LYS A   2     -25.052 -20.219  29.093  1.00  0.00    +0.004 C 
ATOM     15  CD  LYS A   2     -26.315 -19.898  28.311  1.00  0.00    +0.023 C 
ATOM     16  CE  LYS A   2     -26.224 -20.360  26.928  1.00  0.00    +0.136 C 
ATOM     17  NZ  LYS A   2     -27.113 -20.086  25.978  1.00  0.00    -0.142 NA
ATOM     18  N   GLN A   3     -23.881 -21.614  26.220  1.00  0.00    -0.202 N 
ATOM     19  CA  GLN A   3     -24.993 -21.969  25.344  1.00  0.00    +0.141 C 
ATOM     20  C   GLN A   3     -26.296 -22.050  26.120  1.00  0.00    +0.222 C 
ATOM     21  O   GLN A   3     -26.319 -22.530  27.252  1.00  0.00    -0.204 OA
ATOM     22  CB  GLN A   3     -24.732 -23.295  24.648  1.00  0.00    +0.035 C 
ATOM     23  CG  GLN A   3     -23.681 -23.217  23.553  1.00  0.00    +0.090 C 
ATOM     24  CD  GLN A   3     -23.253 -24.586  23.049  1.00  0.00    +0.261 C 
ATOM     25  OE1 GLN A   3     -23.588 -25.617  23.649  1.00  0.00    -0.272 OA
ATOM     26  NE2 GLN A   3     -22.509 -24.606  21.947  1.00  0.00    -0.088 N 
ATOM     27  N   ALA A   4     -27.381 -21.578  25.513  1.00  0.00    -0.170 NA
ATOM     28  CA  ALA A   4     -28.636 -22.325  25.510  1.00  0.00    +0.154 C 
ATOM     29  C   ALA A   4     -28.458 -23.688  24.859  1.00  0.00    +0.258 C 
ATOM     30  O   ALA A   4     -27.680 -23.836  23.919  1.00  0.00    -0.272 OA
ATOM     31  CB  ALA A   4     -29.723 -21.552  24.782  1.00  0.00    +0.029 C 
ATOM     32  N   VAL A   5     -29.183 -24.686  25.359  1.00  0.00    -0.197 N 
ATOM     33  CA  VAL A   5     -29.502 -25.866  24.561  1.00  0.00    +0.173 C 
ATOM     34  C   VAL A   5     -30.601 -25.533  23.567  1.00  0.00    +0.262 C 
ATOM     35  O   VAL A   5     -31.511 -24.764  23.875  1.00  0.00    -0.271 OA
ATOM     36  CB  VAL A   5     -29.940 -27.034  25.428  1.00  0.00    +0.029 C 
ATOM     37  CG1 VAL A   5     -28.953 -27.259  26.573  1.00  0.00    +0.002 C 
ATOM     38  CG2 VAL A   5     -31.313 -26.762  26.036  1.00  0.00    +0.002 C 
ATOM     39  N   PHE A   6     -30.520 -26.109  22.371  1.00  0.00    -0.196 N 
ATOM     40  CA  PHE A   6     -31.709 -26.350  21.560  1.00  0.00    +0.177 C 
ATOM     41  C   PHE A   6     -32.550 -27.468  22.156  1.00  0.00    +0.262 C 
ATOM     42  O   PHE A   6     -32.065 -28.585  22.340  1.00  0.00    -0.271 OA
ATOM     43  CB  PHE A   6     -31.330 -26.708  20.133  1.00  0.00    +0.051 C 
ATOM     44  CG  PHE A   6     -31.251 -25.527  19.212  1.00  0.00    -0.020 A 
ATOM     45  CD1 PHE A   6     -30.059 -24.825  19.080  1.00  0.00    -0.004 A 
ATOM     46  CE1 PHE A   6     -29.987 -23.731  18.226  1.00  0.00    -0.000 A 
ATOM     47  CD2 PHE A   6     -32.372 -25.133  18.490  1.00  0.00    -0.004 A 
ATOM     48  CE2 PHE A   6     -32.301 -24.038  17.636  1.00  0.00    -0.000 A 
ATOM     49  CZ  PHE A   6     -31.108 -23.338  17.505  1.00  0.00    -0.000 A 
ATOM     50  N   ALA A   7     -33.810 -27.169  22.461  1.00  0.00    -0.196 N 
ATOM     51  CA  ALA A   7     -34.922 -27.975  21.967  1.00  0.00    +0.173 C 
ATOM     52  C   ALA A   7     -35.069 -27.837  20.460  1.00  0.00    +0.262 C 
ATOM     53  O   ALA A   7     -35.674 -28.691  19.812  1.00  0.00    -0.271 OA
ATOM     54  CB  ALA A   7     -36.223 -27.570  22.642  1.00  0.00    +0.033 C 
ATOM     55  N   LEU A   8     -34.517 -26.764  19.902  1.00  0.00    -0.196 N 
ATOM     56  CA  LEU A   8     -34.992 -26.242  18.623  1.00  0.00    +0.173 C 
ATOM     57  C   LEU A   8     -34.207 -26.837  17.468  1.00  0.00    +0.262 C 
ATOM     58  O   LEU A   8     -34.621 -26.736  16.314  1.00  0.00    -0.271 OA
ATOM     59  CB  LEU A   8     -34.880 -24.726  18.587  1.00  0.00    +0.031 C 
ATOM     60  CG  LEU A   8     -35.994 -23.951  19.292  1.00  0.00    +0.002 C 
ATOM     61  CD1 LEU A   8     -36.180 -22.585  18.643  1.00  0.00    +0.000 C 
ATOM     62  CD2 LEU A   8     -35.537 -23.492  20.673  1.00  0.00    +0.000 C 
ATOM     63  N   LEU A   9     -33.072 -27.460  17.775  1.00  0.00    -0.196 N 
ATOM     64  CA  LEU A   9     -32.002 -27.623  16.795  1.00  0.00    +0.173 C 
ATOM     65  C   LEU A   9     -32.404 -28.617  15.718  1.00  0.00    +0.262 C 
ATOM     66  O   LEU A   9     -33.240 -29.489  15.952  1.00  0.00    -0.271 OA
ATOM     67  CB  LEU A   9     -30.723 -28.092  17.466  1.00  0.00    +0.031 C 
ATOM     68  CG  LEU A   9     -30.117 -27.139  18.500  1.00  0.00    +0.003 C 
ATOM     69  CD1 LEU A   9     -28.636 -27.444  18.695  1.00  0.00    +0.000 C 
ATOM     70  CD2 LEU A   9     -30.613 -27.482  19.901  1.00  0.00    +0.007 C 
ATOM     71  N   GLN A  10     -31.810 -28.486  14.534  1.00  0.00    -0.196 N 
ATOM     72  CA  GLN A  10     -32.072 -29.423  13.445  1.00  0.00    +0.173 C 
ATOM     73  C   GLN A  10     -31.309 -30.722  13.645  1.00  0.00    +0.262 C 
ATOM     74  O   GLN A  10     -31.906 -31.796  13.697  1.00  0.00    -0.271 OA
ATOM     75  CB  GLN A  10     -31.695 -28.814  12.104  1.00  0.00    +0.041 C 
ATOM     76  CG  GLN A  10     -32.239 -29.579  10.909  1.00  0.00    +0.091 C 
ATOM     77  CD  GLN A  10     -32.498 -28.687   9.706  1.00  0.00    +0.261 C 
ATOM     78  OE1 GLN A  10     -31.561 -28.264   9.014  1.00  0.00    -0.272 OA
ATOM     79  NE2 GLN A  10     -33.770 -28.393   9.449  1.00  0.00    -0.088 N 
ATOM     80  N   VAL A  11     -29.988 -30.625  13.756  1.00  0.00    -0.196 N 
ATOM     81  CA  VAL A  11     -29.097 -31.557  13.070  1.00  0.00    +0.173 C 
ATOM     82  C   VAL A  11     -29.280 -32.955  13.635  1.00  0.00    +0.262 C 
ATOM     83  O   VAL A  11     -29.606 -33.889  12.901  1.00  0.00    -0.271 OA
ATOM     84  CB  VAL A  11     -27.639 -31.146  13.197  1.00  0.00    +0.029 C 
ATOM     85  CG1 VAL A  11     -26.967 -31.105  11.826  1.00  0.00    +0.002 C 
ATOM     86  CG2 VAL A  11     -27.531 -29.754  13.817  1.00  0.00    +0.002 C 
ATOM     87  N   PHE A  12     -29.073 -33.105  14.940  1.00  0.00    -0.196 N 
ATOM     88  CA  PHE A  12     -28.100 -34.066  15.451  1.00  0.00    +0.177 C 
ATOM     89  C   PHE A  12     -28.755 -35.417  15.692  1.00  0.00    +0.262 C 
ATOM     90  O   PHE A  12     -28.181 -36.455  15.364  1.00  0.00    -0.271 OA
ATOM     91  CB  PHE A  12     -27.475 -33.569  16.744  1.00  0.00    +0.057 C 
ATOM     92  CG  PHE A  12     -26.570 -32.386  16.564  1.00  0.00    -0.020 A 
ATOM     93  CD1 PHE A  12     -25.526 -32.442  15.647  1.00  0.00    -0.004 A 
ATOM     94  CE1 PHE A  12     -24.689 -31.346  15.480  1.00  0.00    -0.000 A 
ATOM     95  CD2 PHE A  12     -26.775 -31.233  17.313  1.00  0.00    -0.004 A 
ATOM     96  CE2 PHE A  12     -25.938 -30.137  17.146  1.00  0.00    -0.000 A 
ATOM     97  CZ  PHE A  12     -24.895 -30.192  16.230  1.00  0.00    -0.000 A 
ATOM     98  N   ALA A  13     -29.955 -35.406  16.264  1.00  0.00    -0.196 N 
ATOM     99  CA  ALA A  13     -30.287 -36.319  17.353  1.00  0.00    +0.173 C 
ATOM    100  C   ALA A  13     -30.160 -37.767  16.910  1.00  0.00    +0.262 C 
ATOM    101  O   ALA A  13     -30.593 -38.127  15.817  1.00  0.00    -0.271 OA
ATOM    102  CB  ALA A  13     -31.697 -36.065  17.859  1.00  0.00    +0.033 C 
ATOM    103  N   GLY A  14     -29.565 -38.600  17.760  1.00  0.00    -0.194 N 
ATOM    104  CA  GLY A  14     -30.194 -39.855  18.164  1.00  0.00    +0.201 C 
ATOM    105  C   GLY A  14     -31.245 -39.612  19.236  1.00  0.00    +0.264 C 
ATOM    106  O   GLY A  14     -31.311 -38.526  19.809  1.00  0.00    -0.271 OA
ATOM    107  N   SER A  15     -32.064 -40.622  19.508  1.00  0.00    -0.194 N 
ATOM    108  CA  SER A  15     -33.107 -40.504  20.522  1.00  0.00    +0.205 C 
ATOM    109  C   SER A  15     -32.510 -40.287  21.903  1.00  0.00    +0.264 C 
ATOM    110  O   SER A  15     -31.408 -40.755  22.188  1.00  0.00    -0.271 OA
ATOM    111  CB  SER A  15     -33.984 -41.746  20.539  1.00  0.00    +0.213 C 
ATOM    112  OG  SER A  15     -33.273 -42.856  21.063  1.00  0.00    -0.218 OA
ATOM    113  N   SER A  16     -33.237 -39.581  22.763  1.00  0.00    -0.194 N 
ATOM    114  CA  SER A  16     -32.635 -38.963  23.941  1.00  0.00    +0.205 C 
ATOM    115  C   SER A  16     -32.279 -40.004  24.990  1.00  0.00    +0.264 C 
ATOM    116  O   SER A  16     -33.085 -40.880  25.299  1.00  0.00    -0.271 OA
ATOM    117  CB  SER A  16     -33.574 -37.932  24.547  1.00  0.00    +0.213 C 
ATOM    118  OG  SER A  16     -33.364 -36.657  23.966  1.00  0.00    -0.218 OA
ATOM    119  N   ASP A  17     -31.071 -39.910  25.538  1.00  0.00    -0.196 N 
ATOM    120  CA  ASP A  17     -30.836 -40.285  26.929  1.00  0.00    +0.184 C 
ATOM    121  C   ASP A  17     -30.769 -39.056  27.822  1.00  0.00    +0.262 C 
ATOM    122  O   ASP A  17     -30.471 -37.959  27.353  1.00  0.00    -0.271 OA
ATOM    123  CB  ASP A  17     -29.549 -41.082  27.066  1.00  0.00    +0.145 C 
ATOM    124  CG  ASP A  17     -29.585 -42.406  26.319  1.00  0.00    +0.367 C 
ATOM    125  OD1 ASP A  17     -30.632 -43.090  26.343  1.00  0.00    -0.246 OA
ATOM    126  OD2 ASP A  17     -28.560 -42.765  25.702  1.00  0.00    -0.246 OA
ATOM    127  N   TRP A  18     -31.045 -39.239  29.109  1.00  0.00    -0.196 N 
ATOM    128  CA  TRP A  18     -30.504 -38.354  30.137  1.00  0.00    +0.173 C 
ATOM    129  C   TRP A  18     -29.821 -39.151  31.235  1.00  0.00    +0.262 C 
ATOM    130  O   TRP A  18     -30.151 -40.313  31.463  1.00  0.00    -0.271 OA
ATOM    131  CB  TRP A  18     -31.603 -37.495  30.742  1.00  0.00    +0.037 C 
ATOM    132  CG  TRP A  18     -32.316 -36.623  29.751  1.00  0.00    +0.050 C 
ATOM    133  CD1 TRP A  18     -33.669 -36.523  29.564  1.00  0.00    +0.145 C 
ATOM    134  CD2 TRP A  18     -31.713 -35.730  28.809  1.00  0.00    -0.006 A 
ATOM    135  NE1 TRP A  18     -33.905 -35.610  28.555  1.00  0.00    -0.235 N 
ATOM    136  CE2 TRP A  18     -32.730 -35.109  28.073  1.00  0.00    +0.061 A 
ATOM    137  CE3 TRP A  18     -30.389 -35.387  28.509  1.00  0.00    -0.003 A 
ATOM    138  CZ2 TRP A  18     -32.404 -34.181  27.078  1.00  0.00    +0.016 A 
ATOM    139  CZ3 TRP A  18     -30.119 -34.451  27.504  1.00  0.00    -0.000 A 
ATOM    140  CH2 TRP A  18     -31.064 -33.873  26.819  1.00  0.00    +0.001 A 
ATOM    141  N   ILE A  19     -28.864 -38.528  31.916  1.00  0.00    -0.196 N 
ATOM    142  CA  ILE A  19     -29.089 -38.045  33.275  1.00  0.00    +0.173 C 
ATOM    143  C   ILE A  19     -28.984 -36.529  33.305  1.00  0.00    +0.262 C 
ATOM    144  O   ILE A  19     -28.051 -35.957  32.743  1.00  0.00    -0.271 OA
ATOM    145  CB  ILE A  19     -28.097 -38.642  34.262  1.00  0.00    +0.029 C 
ATOM    146  CG1 ILE A  19     -27.823 -40.106  33.933  1.00  0.00    +0.002 C 
ATOM    147  CG2 ILE A  19     -28.635 -38.533  35.687  1.00  0.00    +0.002 C 
ATOM    148  CD1 ILE A  19     -26.731 -40.311  32.894  1.00  0.00    +0.000 C 
ATOM    149  N   ARG A  20     -29.940 -35.876  33.959  1.00  0.00    -0.196 N 
ATOM    150  CA  ARG A  20     -30.501 -36.397  35.201  1.00  0.00    +0.173 C 
ATOM    151  C   ARG A  20     -31.580 -37.430  34.921  1.00  0.00    +0.262 C 
ATOM    152  O   ARG A  20     -31.287 -38.524  34.442  1.00  0.00    -0.271 OA
ATOM    153  CB  ARG A  20     -31.082 -35.273  36.045  1.00  0.00    +0.033 C 
ATOM    154  CG  ARG A  20     -31.822 -35.755  37.284  1.00  0.00    +0.029 C 
ATOM    155  CD  ARG A  20     -31.010 -36.777  38.063  1.00  0.00    +0.129 C 
ATOM    156  NE  ARG A  20     -31.490 -38.137  37.833  1.00  0.00    -0.234 NA
ATOM    157  CZ  ARG A  20     -31.037 -39.219  38.460  1.00  0.00    +0.284 C 
ATOM    158  NH1 ARG A  20     -31.744 -39.784  39.435  1.00  0.00    -0.104 N 
ATOM    159  NH2 ARG A  20     -29.865 -39.739  38.108  1.00  0.00    -0.104 N 
ATOM    160  N   ARG A  21     -32.829 -37.084  35.219  1.00  0.00    -0.194 N 
ATOM    161  CA  ARG A  21     -33.741 -36.577  34.199  1.00  0.00    +0.198 C 
ATOM    162  C   ARG A  21     -34.037 -35.102  34.419  1.00  0.00    +0.384 C 
ATOM    163  O   ARG A  21     -34.359 -34.382  33.476  1.00  0.00    -0.244 OA
ATOM    164  CB  ARG A  21     -35.044 -37.361  34.198  1.00  0.00    +0.035 C 
ATOM    165  CG  ARG A  21     -35.140 -38.390  33.083  1.00  0.00    +0.021 C 
ATOM    166  CD  ARG A  21     -35.171 -37.735  31.712  1.00  0.00    +0.092 C 
ATOM    167  NE  ARG A  21     -34.053 -38.167  30.881  1.00  0.00    -0.187 NA
ATOM    168  CZ  ARG A  21     -34.019 -38.091  29.553  1.00  0.00    +0.231 C 
ATOM    169  NH1 ARG A  21     -35.072 -37.647  28.873  1.00  0.00    -0.095 NA
ATOM    170  NH2 ARG A  21     -32.922 -38.467  28.901  1.00  0.00    -0.095 NA
ATOM    171  OXT ARG A  21     -33.957 -34.610  35.543  1.00  0.00    -0.244 OA
ATOM    172  H   MET A   1     -18.157 -19.354  28.008  1.00  0.00    +0.000 HD
ATOM    173  H   MET A   1     -17.492 -18.478  26.758  1.00  0.00    +0.000 HD
ATOM    174  H   LYS A   2     -21.710 -18.264  27.869  1.00  0.00    +0.000 HD
ATOM    175  H   LYS A   2     -27.952 -19.637  26.347  1.00  0.00    +0.000 HD
ATOM    176  H   GLN A   3     -23.369 -22.329  26.664  1.00  0.00    +0.000 HD
ATOM    177  H   GLN A   3     -26.361 -23.498  27.192  1.00  0.00    +0.000 HD
ATOM    178  H   GLN A   3     -22.203 -25.464  21.576  1.00  0.00    +0.000 HD
ATOM    179  H   GLN A   3     -22.265 -23.762  21.502  1.00  0.00    +0.000 HD
ATOM    180  H   VAL A   5     -29.510 -24.628  26.286  1.00  0.00    +0.000 HD
ATOM    181  H   PHE A   6     -29.638 -26.379  22.026  1.00  0.00    +0.000 HD
ATOM    182  H   ALA A   7     -33.996 -26.388  23.030  1.00  0.00    +0.000 HD
ATOM    183  H   LEU A   8     -33.771 -26.312  20.360  1.00  0.00    +0.000 HD
ATOM    184  H   LEU A   9     -32.951 -27.819  18.684  1.00  0.00    +0.000 HD
ATOM    185  H   GLN A  10     -31.181 -27.743  14.390  1.00  0.00    +0.000 HD
ATOM    186  H   GLN A  10     -34.484 -28.751  10.025  1.00  0.00    +0.000 HD
ATOM    187  H   GLN A  10     -33.996 -27.819   8.682  1.00  0.00    +0.000 HD
ATOM    188  H   VAL A  11     -29.602 -29.911  14.313  1.00  0.00    +0.000 HD
ATOM    189  H   PHE A  12     -29.587 -32.555  15.575  1.00  0.00    +0.000 HD
ATOM    190  H   ALA A  13     -30.635 -34.769  15.945  1.00  0.00    +0.000 HD
ATOM    191  H   GLY A  14     -28.681 -38.365  18.125  1.00  0.00    +0.000 HD
ATOM    192  H   SER A  15     -31.966 -41.467  19.014  1.00  0.00    +0.000 HD
ATOM    193  H   SER A  15     -32.999 -42.664  21.974  1.00  0.00    +0.000 HD
ATOM    194  H   SER A  16     -34.203 -39.472  22.603  1.00  0.00    +0.000 HD
ATOM    195  H   SER A  16     -32.451 -36.372  24.133  1.00  0.00    +0.000 HD
ATOM    196  H   ASP A  17     -30.319 -39.582  24.994  1.00  0.00    +0.000 HD
ATOM    197  H   ASP A  17     -27.796 -42.224  25.708  1.00  0.00    +0.000 HD
ATOM    198  H   TRP A  18     -31.626 -39.988  29.376  1.00  0.00    +0.000 HD
ATOM    199  H   TRP A  18     -34.797 -35.356  28.227  1.00  0.00    +0.000 HD
ATOM    200  H   ILE A  19     -27.984 -38.390  31.495  1.00  0.00    +0.000 HD
ATOM    201  H   ARG A  20     -30.277 -35.024  33.597  1.00  0.00    +0.000 HD
ATOM    202  H   ARG A  20     -31.400 -40.584  39.893  1.00  0.00    +0.000 HD
ATOM    203  H   ARG A  20     -32.612 -39.401  39.699  1.00  0.00    +0.000 HD
ATOM    204  H   ARG A  20     -29.524 -40.540  38.568  1.00  0.00    +0.000 HD
ATOM    205  H   ARG A  20     -29.339 -39.324  37.387  1.00  0.00    +0.000 HD
ATOM    206  H   ARG A  21     -33.145 -37.172  36.148  1.00  0.00    +0.000 HD
ATOM    207  H   ARG A  21     -33.249 -37.631  31.205  1.00  0.00    +0.000 HD
ATOM    208  H   ARG A  21     -35.668 -38.435  28.618  1.00  0.00    +0.000 HD
ATOM    209  H   ARG A  21     -34.755 -37.173  28.028  1.00  0.00    +0.000 HD
ATOM    210  H   ARG A  21     -32.931 -39.479  28.774  1.00  0.00    +0.000 HD
ATOM    211  H   ARG A  21     -32.098 -38.199  29.439  1.00  0.00    +0.000 HD
ATOM    212  H   ARG A  21     -33.712 -35.145  36.272  1.00  0.00    +0.000 HD
ENDROOT
TORSDOF 0
