REMARK  Name = /var/folders/yp/yjbh3p597675h2qddgqr02y00000gn/T/tmp2ny8cdgw.pdb
REMARK     285 UNITARY VALUES FOR THE UNIT CELL AUTOMATICALLY SET
REMARK     285 BY MDANALYSIS PDBWRITER BECAUSE UNIT CELL INFORMATION
REMARK     285 WAS MISSING.
REMARK     285 PROTEIN DATA BANK CONVENTIONS REQUIRE THAT
REMARK     285 CRYST1 RECORD IS INCLUDED, BUT THE VALUES ON
REMARK     285 THIS RECORD ARE MEANINGLESS.
REMARK     285 UNITARY VALUES FOR THE UNIT CELL AUTOMATICALLY SET
REMARK     285 BY MDANALYSIS PDBWRITER BECAUSE UNIT CELL INFORMATION
REMARK     285 WAS MISSING.
REMARK     285 PROTEIN DATA BANK CONVENTIONS REQUIRE THAT
REMARK     285 CRYST1 RECORD IS INCLUDED, BUT THE VALUES ON
REMARK     285 THIS RECORD ARE MEANINGLESS.
REMARK                            x       y       z     vdW  Elec       q    Type
REMARK                         _______ _______ _______ _____ _____    ______ ____
ROOT
ATOM      1  N   MET A   1       6.684  17.469 -19.843  1.00  0.00    -0.123 NA
ATOM      2  CA  MET A   1       5.411  16.995 -19.306  1.00  0.00    +0.170 C 
ATOM      3  C   MET A   1       5.108  15.587 -19.793  1.00  0.00    +0.259 C 
ATOM      4  O   MET A   1       5.267  15.286 -20.975  1.00  0.00    -0.272 OA
ATOM      5  CB  MET A   1       4.276  17.924 -19.704  1.00  0.00    +0.040 C 
ATOM      6  CG  MET A   1       3.056  17.816 -18.805  1.00  0.00    +0.060 C 
ATOM      7  SD  MET A   1       1.945  19.237 -18.960  1.00  0.00    -0.139 S 
ATOM      8  CE  MET A   1       0.357  18.437 -18.753  1.00  0.00    +0.069 C 
ATOM      9  N   LYS A   2       4.669  14.724 -18.882  1.00  0.00    -0.197 N 
ATOM     10  CA  LYS A   2       4.657  13.287 -19.140  1.00  0.00    +0.173 C 
ATOM     11  C   LYS A   2       3.493  12.904 -20.042  1.00  0.00    +0.262 C 
ATOM     12  O   LYS A   2       2.359  13.319 -19.806  1.00  0.00    -0.271 OA
ATOM     13  CB  LYS A   2       4.571  12.503 -17.842  1.00  0.00    +0.031 C 
ATOM     14  CG  LYS A   2       4.652  10.996 -18.025  1.00  0.00    +0.009 C 
ATOM     15  CD  LYS A   2       5.299  10.316 -16.831  1.00  0.00    +0.049 C 
ATOM     16  CE  LYS A   2       5.258  11.162 -15.640  1.00  0.00    +0.096 C 
ATOM     17  NZ  LYS A   2       4.915  10.746 -14.425  1.00  0.00    -0.151 NA
ATOM     18  N   GLN A   3       3.772  12.112 -21.072  1.00  0.00    -0.196 N 
ATOM     19  CA  GLN A   3       3.077  10.841 -21.264  1.00  0.00    +0.173 C 
ATOM     20  C   GLN A   3       4.051   9.675 -21.218  1.00  0.00    +0.262 C 
ATOM     21  O   GLN A   3       5.015   9.636 -21.979  1.00  0.00    -0.271 OA
ATOM     22  CB  GLN A   3       2.330  10.827 -22.587  1.00  0.00    +0.041 C 
ATOM     23  CG  GLN A   3       1.169  11.807 -22.645  1.00  0.00    +0.091 C 
ATOM     24  CD  GLN A   3       0.451  11.790 -23.986  1.00  0.00    +0.261 C 
ATOM     25  OE1 GLN A   3       0.429  12.798 -24.707  1.00  0.00    -0.272 OA
ATOM     26  NE2 GLN A   3      -0.139  10.649 -24.328  1.00  0.00    -0.088 N 
ATOM     27  N   ALA A   4       3.798   8.723 -20.323  1.00  0.00    -0.196 N 
ATOM     28  CA  ALA A   4       3.131   7.482 -20.701  1.00  0.00    +0.173 C 
ATOM     29  C   ALA A   4       1.831   7.762 -21.438  1.00  0.00    +0.262 C 
ATOM     30  O   ALA A   4       1.051   8.620 -21.028  1.00  0.00    -0.271 OA
ATOM     31  CB  ALA A   4       2.845   6.628 -19.477  1.00  0.00    +0.033 C 
ATOM     32  N   VAL A   5       1.596   7.038 -22.530  1.00  0.00    -0.196 N 
ATOM     33  CA  VAL A   5       0.237   6.805 -23.008  1.00  0.00    +0.173 C 
ATOM     34  C   VAL A   5      -0.230   5.424 -22.579  1.00  0.00    +0.262 C 
ATOM     35  O   VAL A   5       0.446   4.428 -22.836  1.00  0.00    -0.271 OA
ATOM     36  CB  VAL A   5       0.140   6.927 -24.520  1.00  0.00    +0.029 C 
ATOM     37  CG1 VAL A   5      -0.107   8.377 -24.931  1.00  0.00    +0.002 C 
ATOM     38  CG2 VAL A   5       1.440   6.466 -25.177  1.00  0.00    +0.002 C 
ATOM     39  N   PHE A   6      -1.386   5.361 -21.927  1.00  0.00    -0.196 N 
ATOM     40  CA  PHE A   6      -2.532   4.641 -22.474  1.00  0.00    +0.177 C 
ATOM     41  C   PHE A   6      -3.310   5.522 -23.440  1.00  0.00    +0.265 C 
ATOM     42  O   PHE A   6      -3.796   6.587 -23.060  1.00  0.00    -0.271 OA
ATOM     43  CB  PHE A   6      -3.455   4.165 -21.366  1.00  0.00    +0.057 C 
ATOM     44  CG  PHE A   6      -2.745   3.460 -20.247  1.00  0.00    -0.020 A 
ATOM     45  CD1 PHE A   6      -1.396   3.704 -20.016  1.00  0.00    -0.004 A 
ATOM     46  CE1 PHE A   6      -0.739   3.052 -18.979  1.00  0.00    -0.000 A 
ATOM     47  CD2 PHE A   6      -3.438   2.562 -19.441  1.00  0.00    -0.004 A 
ATOM     48  CE2 PHE A   6      -2.780   1.911 -18.405  1.00  0.00    -0.000 A 
ATOM     49  CZ  PHE A   6      -1.431   2.155 -18.173  1.00  0.00    -0.000 A 
ATOM     50  N   ALA A   7      -3.429   5.078 -24.687  1.00  0.00    -0.185 NA
ATOM     51  CA  ALA A   7      -4.735   4.775 -25.263  1.00  0.00    +0.053 C 
ATOM     52  C   ALA A   7      -5.271   3.454 -24.736  1.00  0.00    +0.304 C 
ATOM     53  O   ALA A   7      -4.598   2.427 -24.825  1.00  0.00    -0.265 OA
ATOM     54  CB  ALA A   7      -4.656   4.719 -26.781  1.00  0.00    +0.133 C 
ATOM     55  N   LEU A   8      -6.483   3.478 -24.188  1.00  0.00    -0.258 N 
ATOM     56  CA  LEU A   8      -7.447   2.407 -24.426  1.00  0.00    +0.154 C 
ATOM     57  C   LEU A   8      -8.040   2.512 -25.821  1.00  0.00    +0.260 C 
ATOM     58  O   LEU A   8      -8.234   1.500 -26.495  1.00  0.00    -0.272 OA
ATOM     59  CB  LEU A   8      -8.563   2.448 -23.396  1.00  0.00    +0.029 C 
ATOM     60  CG  LEU A   8      -8.309   1.683 -22.096  1.00  0.00    +0.002 C 
ATOM     61  CD1 LEU A   8      -9.630   1.264 -21.462  1.00  0.00    +0.000 C 
ATOM     62  CD2 LEU A   8      -7.815   2.625 -21.004  1.00  0.00    +0.000 C 
ATOM     63  N   LEU A   9      -8.327   3.735 -26.257  1.00  0.00    -0.196 N 
ATOM     64  CA  LEU A   9      -7.888   4.198 -27.570  1.00  0.00    +0.171 C 
ATOM     65  C   LEU A   9      -6.372   4.314 -27.624  1.00  0.00    +0.246 C 
ATOM     66  O   LEU A   9      -5.739   3.818 -28.555  1.00  0.00    -0.273 OA
ATOM     67  CB  LEU A   9      -8.511   5.542 -27.905  1.00  0.00    +0.031 C 
ATOM     68  CG  LEU A   9      -9.786   5.500 -28.751  1.00  0.00    +0.002 C 
ATOM     69  CD1 LEU A   9     -10.341   6.907 -28.941  1.00  0.00    +0.000 C 
ATOM     70  CD2 LEU A   9     -10.940   4.899 -27.954  1.00  0.00    +0.000 C 
ATOM     71  N   GLN A  10      -5.790   4.972 -26.625  1.00  0.00    -0.266 N 
ATOM     72  CA  GLN A  10      -6.567   5.502 -25.508  1.00  0.00    +0.161 C 
ATOM     73  C   GLN A  10      -6.705   7.013 -25.605  1.00  0.00    +0.260 C 
ATOM     74  O   GLN A  10      -7.698   7.581 -25.153  1.00  0.00    -0.272 OA
ATOM     75  CB  GLN A  10      -5.926   5.136 -24.179  1.00  0.00    +0.090 C 
ATOM     76  CG  GLN A  10      -6.218   3.714 -23.730  1.00  0.00    +0.163 C 
ATOM     77  CD  GLN A  10      -5.454   3.324 -22.474  1.00  0.00    +0.279 C 
ATOM     78  OE1 GLN A  10      -4.299   2.879 -22.544  1.00  0.00    -0.270 OA
ATOM     79  NE2 GLN A  10      -6.090   3.489 -21.318  1.00  0.00    -0.086 N 
ATOM     80  N   VAL A  11      -5.709   7.666 -26.197  1.00  0.00    -0.196 N 
ATOM     81  CA  VAL A  11      -5.300   8.994 -25.750  1.00  0.00    +0.173 C 
ATOM     82  C   VAL A  11      -6.000  10.055 -26.581  1.00  0.00    +0.262 C 
ATOM     83  O   VAL A  11      -6.447  11.072 -26.051  1.00  0.00    -0.271 OA
ATOM     84  CB  VAL A  11      -3.794   9.186 -25.846  1.00  0.00    +0.033 C 
ATOM     85  CG1 VAL A  11      -3.060   8.092 -25.073  1.00  0.00    +0.003 C 
ATOM     86  CG2 VAL A  11      -3.342   9.119 -27.303  1.00  0.00    +0.028 C 
ATOM     87  N   PHE A  12      -6.097   9.822 -27.887  1.00  0.00    -0.196 N 
ATOM     88  CA  PHE A  12      -5.994  10.903 -28.863  1.00  0.00    +0.177 C 
ATOM     89  C   PHE A  12      -7.373  11.331 -29.339  1.00  0.00    +0.262 C 
ATOM     90  O   PHE A  12      -7.577  12.488 -29.703  1.00  0.00    -0.271 OA
ATOM     91  CB  PHE A  12      -5.156  10.478 -30.057  1.00  0.00    +0.057 C 
ATOM     92  CG  PHE A  12      -3.704  10.279 -29.737  1.00  0.00    -0.024 A 
ATOM     93  CD1 PHE A  12      -3.283   9.111 -29.112  1.00  0.00    -0.026 A 
ATOM     94  CE1 PHE A  12      -1.938   8.926 -28.817  1.00  0.00    -0.005 A 
ATOM     95  CD2 PHE A  12      -2.778  11.263 -30.067  1.00  0.00    -0.005 A 
ATOM     96  CE2 PHE A  12      -1.433  11.078 -29.771  1.00  0.00    -0.000 A 
ATOM     97  CZ  PHE A  12      -1.012   9.910 -29.146  1.00  0.00    -0.000 A 
ATOM     98  N   ALA A  13      -8.322  10.400 -29.336  1.00  0.00    -0.196 N 
ATOM     99  CA  ALA A  13      -8.993   9.994 -30.568  1.00  0.00    +0.173 C 
ATOM    100  C   ALA A  13      -9.772  11.151 -31.171  1.00  0.00    +0.262 C 
ATOM    101  O   ALA A  13     -10.538  11.818 -30.478  1.00  0.00    -0.271 OA
ATOM    102  CB  ALA A  13      -9.933   8.827 -30.311  1.00  0.00    +0.033 C 
ATOM    103  N   GLY A  14      -9.578  11.390 -32.466  1.00  0.00    -0.194 N 
ATOM    104  CA  GLY A  14     -10.574  11.016 -33.466  1.00  0.00    +0.201 C 
ATOM    105  C   GLY A  14     -11.642  12.090 -33.594  1.00  0.00    +0.264 C 
ATOM    106  O   GLY A  14     -11.513  13.170 -33.020  1.00  0.00    -0.271 OA
ATOM    107  N   SER A  15     -12.698  11.795 -34.346  1.00  0.00    -0.194 N 
ATOM    108  CA  SER A  15     -13.544  12.841 -34.913  1.00  0.00    +0.205 C 
ATOM    109  C   SER A  15     -14.290  13.596 -33.825  1.00  0.00    +0.264 C 
ATOM    110  O   SER A  15     -14.657  14.757 -34.010  1.00  0.00    -0.271 OA
ATOM    111  CB  SER A  15     -14.542  12.250 -35.895  1.00  0.00    +0.213 C 
ATOM    112  OG  SER A  15     -15.411  11.340 -35.243  1.00  0.00    -0.218 OA
ATOM    113  N   SER A  16     -14.513  12.942 -32.690  1.00  0.00    -0.194 N 
ATOM    114  CA  SER A  16     -15.841  12.905 -32.081  1.00  0.00    +0.205 C 
ATOM    115  C   SER A  16     -16.203  14.247 -31.467  1.00  0.00    +0.264 C 
ATOM    116  O   SER A  16     -17.361  14.487 -31.131  1.00  0.00    -0.271 OA
ATOM    117  CB  SER A  16     -15.913  11.822 -31.018  1.00  0.00    +0.213 C 
ATOM    118  OG  SER A  16     -16.328  12.365 -29.776  1.00  0.00    -0.218 OA
ATOM    119  N   ASP A  17     -15.212  15.121 -31.319  1.00  0.00    -0.196 N 
ATOM    120  CA  ASP A  17     -15.247  16.138 -30.271  1.00  0.00    +0.184 C 
ATOM    121  C   ASP A  17     -16.020  17.365 -30.727  1.00  0.00    +0.262 C 
ATOM    122  O   ASP A  17     -15.824  17.851 -31.838  1.00  0.00    -0.271 OA
ATOM    123  CB  ASP A  17     -13.840  16.548 -29.866  1.00  0.00    +0.145 C 
ATOM    124  CG  ASP A  17     -13.793  17.292 -28.541  1.00  0.00    +0.367 C 
ATOM    125  OD1 ASP A  17     -14.611  18.213 -28.331  1.00  0.00    -0.246 OA
ATOM    126  OD2 ASP A  17     -12.932  16.952 -27.703  1.00  0.00    -0.246 OA
ATOM    127  N   TRP A  18     -16.901  17.868 -29.865  1.00  0.00    -0.196 N 
ATOM    128  CA  TRP A  18     -16.887  19.282 -29.503  1.00  0.00    +0.177 C 
ATOM    129  C   TRP A  18     -16.672  19.456 -28.009  1.00  0.00    +0.262 C 
ATOM    130  O   TRP A  18     -17.037  18.587 -27.218  1.00  0.00    -0.271 OA
ATOM    131  CB  TRP A  18     -18.186  19.957 -29.911  1.00  0.00    +0.059 C 
ATOM    132  CG  TRP A  18     -19.417  19.160 -29.596  1.00  0.00    +0.000 C 
ATOM    133  CD1 TRP A  18     -20.302  18.619 -30.490  1.00  0.00    +0.094 C 
ATOM    134  CD2 TRP A  18     -19.902  18.817 -28.294  1.00  0.00    +0.011 C 
ATOM    135  NE1 TRP A  18     -21.292  17.965 -29.784  1.00  0.00    -0.248 NA
ATOM    136  CE2 TRP A  18     -21.076  18.068 -28.441  1.00  0.00    +0.063 C 
ATOM    137  CE3 TRP A  18     -19.451  19.071 -26.994  1.00  0.00    -0.004 C 
ATOM    138  CZ2 TRP A  18     -21.755  17.604 -27.309  1.00  0.00    +0.071 C 
ATOM    139  CZ3 TRP A  18     -20.168  18.583 -25.895  1.00  0.00    -0.024 C 
ATOM    140  CH2 TRP A  18     -21.261  17.888 -26.029  1.00  0.00    -0.024 C 
ATOM    141  N   ILE A  19     -16.077  20.580 -27.618  1.00  0.00    -0.196 N 
ATOM    142  CA  ILE A  19     -16.328  21.156 -26.301  1.00  0.00    +0.173 C 
ATOM    143  C   ILE A  19     -17.116  22.448 -26.449  1.00  0.00    +0.262 C 
ATOM    144  O   ILE A  19     -16.745  23.319 -27.234  1.00  0.00    -0.271 OA
ATOM    145  CB  ILE A  19     -15.038  21.433 -25.547  1.00  0.00    +0.029 C 
ATOM    146  CG1 ILE A  19     -14.335  20.128 -25.180  1.00  0.00    +0.002 C 
ATOM    147  CG2 ILE A  19     -15.326  22.231 -24.276  1.00  0.00    +0.002 C 
ATOM    148  CD1 ILE A  19     -13.492  19.544 -26.302  1.00  0.00    +0.000 C 
ATOM    149  N   ARG A  20     -18.205  22.572 -25.695  1.00  0.00    -0.196 N 
ATOM    150  CA  ARG A  20     -18.114  22.708 -24.245  1.00  0.00    +0.173 C 
ATOM    151  C   ARG A  20     -17.942  21.352 -23.581  1.00  0.00    +0.262 C 
ATOM    152  O   ARG A  20     -17.304  21.245 -22.535  1.00  0.00    -0.271 OA
ATOM    153  CB  ARG A  20     -19.351  23.392 -23.687  1.00  0.00    +0.036 C 
ATOM    154  CG  ARG A  20     -20.625  22.577 -23.836  1.00  0.00    +0.060 C 
ATOM    155  CD  ARG A  20     -21.867  23.435 -23.665  1.00  0.00    +0.099 C 
ATOM    156  NE  ARG A  20     -23.087  22.680 -23.943  1.00  0.00    -0.260 N 
ATOM    157  CZ  ARG A  20     -24.320  23.111 -23.693  1.00  0.00    +0.259 C 
ATOM    158  NH1 ARG A  20     -24.520  24.273 -23.076  1.00  0.00    -0.108 N 
ATOM    159  NH2 ARG A  20     -25.363  22.375 -24.064  1.00  0.00    -0.108 NA
ATOM    160  N   ARG A  21     -18.509  20.314 -24.189  1.00  0.00    -0.194 N 
ATOM    161  CA  ARG A  21     -19.684  19.655 -23.628  1.00  0.00    +0.202 C 
ATOM    162  C   ARG A  21     -19.297  18.378 -22.900  1.00  0.00    +0.385 C 
ATOM    163  O   ARG A  21     -19.784  18.114 -21.802  1.00  0.00    -0.244 OA
ATOM    164  CB  ARG A  21     -20.694  19.331 -24.718  1.00  0.00    +0.057 C 
ATOM    165  CG  ARG A  21     -21.465  20.542 -25.220  1.00  0.00    +0.048 C 
ATOM    166  CD  ARG A  21     -21.481  21.665 -24.195  1.00  0.00    +0.150 C 
ATOM    167  NE  ARG A  21     -22.156  21.263 -22.965  1.00  0.00    -0.218 NA
ATOM    168  CZ  ARG A  21     -22.008  21.862 -21.787  1.00  0.00    +0.286 C 
ATOM    169  NH1 ARG A  21     -22.609  21.382 -20.703  1.00  0.00    -0.104 N 
ATOM    170  NH2 ARG A  21     -21.251  22.951 -21.694  1.00  0.00    -0.104 N 
ATOM    171  OXT ARG A  21     -18.493  17.593 -23.400  1.00  0.00    -0.244 OA
ATOM    172  H   MET A   1       7.429  16.831 -19.564  1.00  0.00    +0.000 HD
ATOM    173  H   MET A   1       6.880  18.401 -19.479  1.00  0.00    +0.000 HD
ATOM    174  H   LYS A   2       4.346  15.061 -18.015  1.00  0.00    +0.000 HD
ATOM    175  H   LYS A   2       4.664   9.805 -14.280  1.00  0.00    +0.000 HD
ATOM    176  H   GLN A   3       4.461  12.387 -21.719  1.00  0.00    +0.000 HD
ATOM    177  H   GLN A   3      -0.096   9.873 -23.725  1.00  0.00    +0.000 HD
ATOM    178  H   GLN A   3      -0.618  10.581 -25.185  1.00  0.00    +0.000 HD
ATOM    179  H   ALA A   4       4.066   8.859 -19.385  1.00  0.00    +0.000 HD
ATOM    180  H   VAL A   5       2.354   6.652 -23.025  1.00  0.00    +0.000 HD
ATOM    181  H   PHE A   6      -1.472   5.811 -21.055  1.00  0.00    +0.000 HD
ATOM    182  H   LEU A   9      -8.846   4.342 -25.682  1.00  0.00    +0.000 HD
ATOM    183  H   GLN A  10      -5.644   3.254 -20.473  1.00  0.00    +0.000 HD
ATOM    184  H   GLN A  10      -7.007   3.847 -21.307  1.00  0.00    +0.000 HD
ATOM    185  H   VAL A  11      -5.238   7.244 -26.952  1.00  0.00    +0.000 HD
ATOM    186  H   PHE A  12      -6.242   8.901 -28.203  1.00  0.00    +0.000 HD
ATOM    187  H   ALA A  13      -8.578   9.975 -28.486  1.00  0.00    +0.000 HD
ATOM    188  H   GLY A  14      -8.746  11.828 -32.756  1.00  0.00    +0.000 HD
ATOM    189  H   SER A  15     -12.913  10.852 -34.525  1.00  0.00    +0.000 HD
ATOM    190  H   SER A  15     -15.906  11.806 -34.549  1.00  0.00    +0.000 HD
ATOM    191  H   SER A  16     -13.768  12.471 -32.250  1.00  0.00    +0.000 HD
ATOM    192  H   SER A  16     -15.690  13.035 -29.486  1.00  0.00    +0.000 HD
ATOM    193  H   ASP A  17     -14.439  15.082 -31.927  1.00  0.00    +0.000 HD
ATOM    194  H   ASP A  17     -15.242  18.438 -28.986  1.00  0.00    +0.000 HD
ATOM    195  H   TRP A  18     -17.577  17.274 -29.465  1.00  0.00    +0.000 HD
ATOM    196  H   ILE A  19     -15.453  21.033 -28.231  1.00  0.00    +0.000 HD
ATOM    197  H   ARG A  20     -19.091  22.572 -26.125  1.00  0.00    +0.000 HD
ATOM    198  H   ARG A  20     -23.752  24.822 -22.799  1.00  0.00    +0.000 HD
ATOM    199  H   ARG A  20     -25.437  24.583 -22.896  1.00  0.00    +0.000 HD
ATOM    200  H   ARG A  20     -25.220  21.515 -24.521  1.00  0.00    +0.000 HD
ATOM    201  H   ARG A  21     -18.128  19.982 -25.034  1.00  0.00    +0.000 HD
ATOM    202  H   ARG A  21     -20.398  18.702 -21.408  1.00  0.00    +0.000 HD
ATOM    203  H   ARG A  21     -23.171  20.576 -20.768  1.00  0.00    +0.000 HD
ATOM    204  H   ARG A  21     -22.494  21.832 -19.835  1.00  0.00    +0.000 HD
ATOM    205  H   ARG A  21     -20.804  23.310 -22.495  1.00  0.00    +0.000 HD
ATOM    206  H   ARG A  21     -21.137  23.399 -20.825  1.00  0.00    +0.000 HD
ENDROOT
TORSDOF 0
