REMARK  Name = /var/folders/yp/yjbh3p597675h2qddgqr02y00000gn/T/tmpmqcmh50w.pdb
REMARK     285 UNITARY VALUES FOR THE UNIT CELL AUTOMATICALLY SET
REMARK     285 BY MDANALYSIS PDBWRITER BECAUSE UNIT CELL INFORMATION
REMARK     285 WAS MISSING.
REMARK     285 PROTEIN DATA BANK CONVENTIONS REQUIRE THAT
REMARK     285 CRYST1 RECORD IS INCLUDED, BUT THE VALUES ON
REMARK     285 THIS RECORD ARE MEANINGLESS.
REMARK     285 UNITARY VALUES FOR THE UNIT CELL AUTOMATICALLY SET
REMARK     285 BY MDANALYSIS PDBWRITER BECAUSE UNIT CELL INFORMATION
REMARK     285 WAS MISSING.
REMARK     285 PROTEIN DATA BANK CONVENTIONS REQUIRE THAT
REMARK     285 CRYST1 RECORD IS INCLUDED, BUT THE VALUES ON
REMARK     285 THIS RECORD ARE MEANINGLESS.
REMARK                            x       y       z     vdW  Elec       q    Type
REMARK                         _______ _______ _______ _____ _____    ______ ____
REMARK  Name = /var/folders/yp/yjbh3p597675h2qddgqr02y00000gn/T/tmpmqcmh50w.pdb
REMARK     285 UNITARY VALUES FOR THE UNIT CELL AUTOMATICALLY SET
REMARK     285 BY MDANALYSIS PDBWRITER BECAUSE UNIT CELL INFORMATION
REMARK     285 WAS MISSING.
REMARK     285 PROTEIN DATA BANK CONVENTIONS REQUIRE THAT
REMARK     285 CRYST1 RECORD IS INCLUDED, BUT THE VALUES ON
REMARK     285 THIS RECORD ARE MEANINGLESS.
REMARK     285 UNITARY VALUES FOR THE UNIT CELL AUTOMATICALLY SET
REMARK     285 BY MDANALYSIS PDBWRITER BECAUSE UNIT CELL INFORMATION
REMARK     285 WAS MISSING.
REMARK     285 PROTEIN DATA BANK CONVENTIONS REQUIRE THAT
REMARK     285 CRYST1 RECORD IS INCLUDED, BUT THE VALUES ON
REMARK     285 THIS RECORD ARE MEANINGLESS.
REMARK                            x       y       z     vdW  Elec       q    Type
REMARK                         _______ _______ _______ _____ _____    ______ ____
REMARK  Name = /var/folders/yp/yjbh3p597675h2qddgqr02y00000gn/T/tmpmqcmh50w.pdb
REMARK     285 UNITARY VALUES FOR THE UNIT CELL AUTOMATICALLY SET
REMARK     285 BY MDANALYSIS PDBWRITER BECAUSE UNIT CELL INFORMATION
REMARK     285 WAS MISSING.
REMARK     285 PROTEIN DATA BANK CONVENTIONS REQUIRE THAT
REMARK     285 CRYST1 RECORD IS INCLUDED, BUT THE VALUES ON
REMARK     285 THIS RECORD ARE MEANINGLESS.
REMARK     285 UNITARY VALUES FOR THE UNIT CELL AUTOMATICALLY SET
REMARK     285 BY MDANALYSIS PDBWRITER BECAUSE UNIT CELL INFORMATION
REMARK     285 WAS MISSING.
REMARK     285 PROTEIN DATA BANK CONVENTIONS REQUIRE THAT
REMARK     285 CRYST1 RECORD IS INCLUDED, BUT THE VALUES ON
REMARK     285 THIS RECORD ARE MEANINGLESS.
REMARK                            x       y       z     vdW  Elec       q    Type
REMARK                         _______ _______ _______ _____ _____    ______ ____
REMARK  Name = /var/folders/yp/yjbh3p597675h2qddgqr02y00000gn/T/tmpmqcmh50w.pdb
REMARK     285 UNITARY VALUES FOR THE UNIT CELL AUTOMATICALLY SET
REMARK     285 BY MDANALYSIS PDBWRITER BECAUSE UNIT CELL INFORMATION
REMARK     285 WAS MISSING.
REMARK     285 PROTEIN DATA BANK CONVENTIONS REQUIRE THAT
REMARK     285 CRYST1 RECORD IS INCLUDED, BUT THE VALUES ON
REMARK     285 THIS RECORD ARE MEANINGLESS.
REMARK     285 UNITARY VALUES FOR THE UNIT CELL AUTOMATICALLY SET
REMARK     285 BY MDANALYSIS PDBWRITER BECAUSE UNIT CELL INFORMATION
REMARK     285 WAS MISSING.
REMARK     285 PROTEIN DATA BANK CONVENTIONS REQUIRE THAT
REMARK     285 CRYST1 RECORD IS INCLUDED, BUT THE VALUES ON
REMARK     285 THIS RECORD ARE MEANINGLESS.
REMARK                            x       y       z     vdW  Elec       q    Type
REMARK                         _______ _______ _______ _____ _____    ______ ____
ROOT
ATOM      1  N   MET A   1       9.582  -7.468  21.058  1.00  0.00    -0.123 NA
ATOM      2  CA  MET A   1      10.619  -8.457  21.338  1.00  0.00    +0.170 C 
ATOM      3  C   MET A   1      11.937  -7.781  21.682  1.00  0.00    +0.259 C 
ATOM      4  O   MET A   1      12.282  -6.753  21.102  1.00  0.00    -0.272 OA
ATOM      5  CB  MET A   1      10.820  -9.383  20.150  1.00  0.00    +0.040 C 
ATOM      6  CG  MET A   1       9.593 -10.215  19.811  1.00  0.00    +0.060 C 
ATOM      7  SD  MET A   1       8.135  -9.200  19.460  1.00  0.00    -0.139 S 
ATOM      8  CE  MET A   1       6.845 -10.223  20.161  1.00  0.00    +0.069 C 
ATOM      9  N   LYS A   2      12.674  -8.359  22.626  1.00  0.00    -0.197 N 
ATOM     10  CA  LYS A   2      14.064  -7.970  22.848  1.00  0.00    +0.173 C 
ATOM     11  C   LYS A   2      14.921  -8.289  21.634  1.00  0.00    +0.262 C 
ATOM     12  O   LYS A   2      14.840  -9.387  21.085  1.00  0.00    -0.271 OA
ATOM     13  CB  LYS A   2      14.632  -8.671  24.071  1.00  0.00    +0.031 C 
ATOM     14  CG  LYS A   2      16.064  -8.276  24.397  1.00  0.00    +0.009 C 
ATOM     15  CD  LYS A   2      17.070  -9.123  23.637  1.00  0.00    +0.049 C 
ATOM     16  CE  LYS A   2      18.286  -9.345  24.414  1.00  0.00    +0.096 C 
ATOM     17  NZ  LYS A   2      19.044 -10.436  24.343  1.00  0.00    -0.151 NA
ATOM     18  N   GLN A   3      15.744  -7.332  21.217  1.00  0.00    -0.196 N 
ATOM     19  CA  GLN A   3      16.938  -7.641  20.436  1.00  0.00    +0.173 C 
ATOM     20  C   GLN A   3      17.923  -8.468  21.246  1.00  0.00    +0.262 C 
ATOM     21  O   GLN A   3      18.161  -8.183  22.418  1.00  0.00    -0.271 OA
ATOM     22  CB  GLN A   3      17.617  -6.369  19.957  1.00  0.00    +0.041 C 
ATOM     23  CG  GLN A   3      17.017  -5.795  18.683  1.00  0.00    +0.091 C 
ATOM     24  CD  GLN A   3      15.644  -5.181  18.906  1.00  0.00    +0.261 C 
ATOM     25  OE1 GLN A   3      15.281  -4.826  20.037  1.00  0.00    -0.272 OA
ATOM     26  NE2 GLN A   3      14.871  -5.050  17.831  1.00  0.00    -0.088 N 
ATOM     27  N   ALA A   4      18.494  -9.494  20.623  1.00  0.00    -0.196 N 
ATOM     28  CA  ALA A   4      19.611 -10.220  21.220  1.00  0.00    +0.173 C 
ATOM     29  C   ALA A   4      20.940  -9.592  20.832  1.00  0.00    +0.262 C 
ATOM     30  O   ALA A   4      21.099  -9.101  19.715  1.00  0.00    -0.271 OA
ATOM     31  CB  ALA A   4      19.596 -11.679  20.794  1.00  0.00    +0.033 C 
ATOM     32  N   VAL A   5      21.899  -9.608  21.753  1.00  0.00    -0.196 N 
ATOM     33  CA  VAL A   5      23.202  -8.996  21.507  1.00  0.00    +0.173 C 
ATOM     34  C   VAL A   5      23.910  -9.730  20.379  1.00  0.00    +0.262 C 
ATOM     35  O   VAL A   5      23.868 -10.958  20.310  1.00  0.00    -0.271 OA
ATOM     36  CB  VAL A   5      24.078  -9.006  22.748  1.00  0.00    +0.029 C 
ATOM     37  CG1 VAL A   5      25.514  -9.387  22.392  1.00  0.00    +0.002 C 
ATOM     38  CG2 VAL A   5      24.104  -7.621  23.392  1.00  0.00    +0.002 C 
ATOM     39  N   PHE A   6      24.560  -8.981  19.494  1.00  0.00    -0.196 N 
ATOM     40  CA  PHE A   6      24.207  -8.998  18.077  1.00  0.00    +0.177 C 
ATOM     41  C   PHE A   6      24.499 -10.358  17.468  1.00  0.00    +0.262 C 
ATOM     42  O   PHE A   6      25.644 -10.807  17.458  1.00  0.00    -0.271 OA
ATOM     43  CB  PHE A   6      24.970  -7.926  17.316  1.00  0.00    +0.057 C 
ATOM     44  CG  PHE A   6      24.262  -6.605  17.256  1.00  0.00    -0.020 A 
ATOM     45  CD1 PHE A   6      23.885  -5.966  18.432  1.00  0.00    -0.004 A 
ATOM     46  CE1 PHE A   6      23.230  -4.742  18.377  1.00  0.00    -0.000 A 
ATOM     47  CD2 PHE A   6      23.985  -6.020  16.026  1.00  0.00    -0.004 A 
ATOM     48  CE2 PHE A   6      23.329  -4.795  15.972  1.00  0.00    -0.000 A 
ATOM     49  CZ  PHE A   6      22.951  -4.156  17.147  1.00  0.00    -0.000 A 
ATOM     50  N   ALA A   7      23.463 -11.018  16.956  1.00  0.00    -0.196 N 
ATOM     51  CA  ALA A   7      23.568 -11.739  15.691  1.00  0.00    +0.173 C 
ATOM     52  C   ALA A   7      23.898 -10.794  14.547  1.00  0.00    +0.262 C 
ATOM     53  O   ALA A   7      23.414  -9.662  14.515  1.00  0.00    -0.271 OA
ATOM     54  CB  ALA A   7      22.276 -12.478  15.383  1.00  0.00    +0.033 C 
ATOM     55  N   LEU A   8      24.720 -11.256  13.611  1.00  0.00    -0.196 N 
ATOM     56  CA  LEU A   8      26.165 -11.078  13.714  1.00  0.00    +0.173 C 
ATOM     57  C   LEU A   8      26.534  -9.604  13.675  1.00  0.00    +0.262 C 
ATOM     58  O   LEU A   8      27.130  -9.086  14.619  1.00  0.00    -0.271 OA
ATOM     59  CB  LEU A   8      26.879 -11.808  12.587  1.00  0.00    +0.031 C 
ATOM     60  CG  LEU A   8      27.618 -13.089  12.978  1.00  0.00    +0.002 C 
ATOM     61  CD1 LEU A   8      27.512 -13.323  14.480  1.00  0.00    +0.000 C 
ATOM     62  CD2 LEU A   8      29.127 -12.887  12.881  1.00  0.00    +0.000 C 
ATOM     63  N   LEU A   9      26.180  -8.929  12.585  1.00  0.00    -0.196 N 
ATOM     64  CA  LEU A   9      26.162  -9.564  11.270  1.00  0.00    +0.173 C 
ATOM     65  C   LEU A   9      27.563  -9.644  10.688  1.00  0.00    +0.262 C 
ATOM     66  O   LEU A   9      28.324  -8.680  10.758  1.00  0.00    -0.271 OA
ATOM     67  CB  LEU A   9      25.257  -8.800  10.317  1.00  0.00    +0.031 C 
ATOM     68  CG  LEU A   9      24.110  -8.017  10.958  1.00  0.00    +0.002 C 
ATOM     69  CD1 LEU A   9      22.809  -8.803  10.849  1.00  0.00    +0.000 C 
ATOM     70  CD2 LEU A   9      23.732  -6.819  10.095  1.00  0.00    +0.000 C 
ATOM     71  N   GLN A  10      27.906 -10.794  10.112  1.00  0.00    -0.196 N 
ATOM     72  CA  GLN A  10      28.461 -10.831   8.764  1.00  0.00    +0.173 C 
ATOM     73  C   GLN A  10      27.362 -10.753   7.716  1.00  0.00    +0.262 C 
ATOM     74  O   GLN A  10      27.575 -10.235   6.621  1.00  0.00    -0.271 OA
ATOM     75  CB  GLN A  10      29.277 -12.095   8.549  1.00  0.00    +0.041 C 
ATOM     76  CG  GLN A  10      29.663 -12.336   7.099  1.00  0.00    +0.091 C 
ATOM     77  CD  GLN A  10      31.121 -12.012   6.816  1.00  0.00    +0.261 C 
ATOM     78  OE1 GLN A  10      31.431 -11.145   5.986  1.00  0.00    -0.272 OA
ATOM     79  NE2 GLN A  10      32.027 -12.704   7.503  1.00  0.00    -0.088 N 
ATOM     80  N   VAL A  11      26.182 -11.265   8.053  1.00  0.00    -0.196 N 
ATOM     81  CA  VAL A  11      25.559 -12.325   7.264  1.00  0.00    +0.173 C 
ATOM     82  C   VAL A  11      24.298 -11.798   6.600  1.00  0.00    +0.262 C 
ATOM     83  O   VAL A  11      23.569 -11.002   7.188  1.00  0.00    -0.271 OA
ATOM     84  CB  VAL A  11      25.216 -13.539   8.114  1.00  0.00    +0.029 C 
ATOM     85  CG1 VAL A  11      26.474 -14.339   8.444  1.00  0.00    +0.002 C 
ATOM     86  CG2 VAL A  11      24.577 -13.104   9.430  1.00  0.00    +0.002 C 
ATOM     87  N   PHE A  12      24.042 -12.240   5.371  1.00  0.00    -0.196 N 
ATOM     88  CA  PHE A  12      22.741 -12.032   4.745  1.00  0.00    +0.177 C 
ATOM     89  C   PHE A  12      21.684 -12.915   5.391  1.00  0.00    +0.262 C 
ATOM     90  O   PHE A  12      21.944 -14.076   5.699  1.00  0.00    -0.271 OA
ATOM     91  CB  PHE A  12      22.803 -12.325   3.255  1.00  0.00    +0.057 C 
ATOM     92  CG  PHE A  12      23.745 -11.433   2.502  1.00  0.00    -0.020 A 
ATOM     93  CD1 PHE A  12      24.271 -10.303   3.113  1.00  0.00    -0.004 A 
ATOM     94  CE1 PHE A  12      25.142  -9.476   2.414  1.00  0.00    -0.000 A 
ATOM     95  CD2 PHE A  12      24.091 -11.740   1.190  1.00  0.00    -0.004 A 
ATOM     96  CE2 PHE A  12      24.964 -10.913   0.492  1.00  0.00    -0.000 A 
ATOM     97  CZ  PHE A  12      25.490  -9.781   1.104  1.00  0.00    -0.000 A 
ATOM     98  N   ALA A  13      20.491 -12.363   5.596  1.00  0.00    -0.196 N 
ATOM     99  CA  ALA A  13      19.258 -13.106   5.349  1.00  0.00    +0.173 C 
ATOM    100  C   ALA A  13      19.153 -13.518   3.890  1.00  0.00    +0.262 C 
ATOM    101  O   ALA A  13      19.622 -12.804   3.003  1.00  0.00    -0.271 OA
ATOM    102  CB  ALA A  13      18.044 -12.276   5.729  1.00  0.00    +0.033 C 
ATOM    103  N   GLY A  14      18.538 -14.670   3.638  1.00  0.00    -0.194 N 
ATOM    104  CA  GLY A  14      18.100 -15.021   2.290  1.00  0.00    +0.201 C 
ATOM    105  C   GLY A  14      19.086 -15.970   1.629  1.00  0.00    +0.264 C 
ATOM    106  O   GLY A  14      19.878 -16.622   2.309  1.00  0.00    -0.271 OA
ATOM    107  N   SER A  15      19.040 -16.050   0.302  1.00  0.00    -0.194 N 
ATOM    108  CA  SER A  15      17.834 -16.490  -0.392  1.00  0.00    +0.205 C 
ATOM    109  C   SER A  15      17.366 -17.842   0.122  1.00  0.00    +0.264 C 
ATOM    110  O   SER A  15      18.171 -18.645   0.589  1.00  0.00    -0.271 OA
ATOM    111  CB  SER A  15      18.078 -16.573  -1.890  1.00  0.00    +0.213 C 
ATOM    112  OG  SER A  15      18.880 -17.697  -2.207  1.00  0.00    -0.218 OA
ATOM    113  N   SER A  16      16.063 -18.093   0.034  1.00  0.00    -0.194 N 
ATOM    114  CA  SER A  16      15.548 -19.459   0.076  1.00  0.00    +0.205 C 
ATOM    115  C   SER A  16      15.935 -20.232  -1.174  1.00  0.00    +0.264 C 
ATOM    116  O   SER A  16      15.428 -21.328  -1.414  1.00  0.00    -0.271 OA
ATOM    117  CB  SER A  16      14.035 -19.459   0.223  1.00  0.00    +0.213 C 
ATOM    118  OG  SER A  16      13.658 -19.053   1.528  1.00  0.00    -0.218 OA
ATOM    119  N   ASP A  17      16.836 -19.666  -1.972  1.00  0.00    -0.196 N 
ATOM    120  CA  ASP A  17      17.807 -20.464  -2.712  1.00  0.00    +0.184 C 
ATOM    121  C   ASP A  17      19.043 -20.738  -1.868  1.00  0.00    +0.262 C 
ATOM    122  O   ASP A  17      19.517 -19.858  -1.151  1.00  0.00    -0.271 OA
ATOM    123  CB  ASP A  17      18.216 -19.769  -3.999  1.00  0.00    +0.145 C 
ATOM    124  CG  ASP A  17      17.094 -19.702  -5.022  1.00  0.00    +0.367 C 
ATOM    125  OD1 ASP A  17      16.101 -20.448  -4.888  1.00  0.00    -0.246 OA
ATOM    126  OD2 ASP A  17      17.205 -18.894  -5.970  1.00  0.00    -0.246 OA
ATOM    127  N   TRP A  18      19.564 -21.958  -1.954  1.00  0.00    -0.196 N 
ATOM    128  CA  TRP A  18      20.980 -22.201  -1.689  1.00  0.00    +0.177 C 
ATOM    129  C   TRP A  18      21.662 -22.805  -2.905  1.00  0.00    +0.262 C 
ATOM    130  O   TRP A  18      21.002 -23.357  -3.783  1.00  0.00    -0.271 OA
ATOM    131  CB  TRP A  18      21.155 -23.124  -0.495  1.00  0.00    +0.055 C 
ATOM    132  CG  TRP A  18      19.868 -23.593   0.113  1.00  0.00    -0.016 C 
ATOM    133  CD1 TRP A  18      19.601 -23.772   1.445  1.00  0.00    +0.148 C 
ATOM    134  CD2 TRP A  18      18.671 -23.945  -0.586  1.00  0.00    +0.011 A 
ATOM    135  NE1 TRP A  18      18.300 -24.214   1.575  1.00  0.00    -0.266 NA
ATOM    136  CE2 TRP A  18      17.706 -24.329   0.352  1.00  0.00    +0.076 A 
ATOM    137  CE3 TRP A  18      18.311 -23.973  -1.939  1.00  0.00    +0.001 A 
ATOM    138  CZ2 TRP A  18      16.432 -24.724  -0.075  1.00  0.00    +0.019 A 
ATOM    139  CZ3 TRP A  18      17.024 -24.376  -2.312  1.00  0.00    +0.000 A 
ATOM    140  CH2 TRP A  18      16.125 -24.733  -1.442  1.00  0.00    +0.002 A 
ATOM    141  N   ILE A  19      22.988 -22.701  -2.957  1.00  0.00    -0.196 N 
ATOM    142  CA  ILE A  19      23.811 -23.751  -3.550  1.00  0.00    +0.173 C 
ATOM    143  C   ILE A  19      24.659 -24.407  -2.474  1.00  0.00    +0.262 C 
ATOM    144  O   ILE A  19      25.149 -23.735  -1.567  1.00  0.00    -0.271 OA
ATOM    145  CB  ILE A  19      24.711 -23.214  -4.650  1.00  0.00    +0.029 C 
ATOM    146  CG1 ILE A  19      24.081 -21.994  -5.316  1.00  0.00    +0.002 C 
ATOM    147  CG2 ILE A  19      24.968 -24.291  -5.703  1.00  0.00    +0.002 C 
ATOM    148  CD1 ILE A  19      24.877 -21.450  -6.492  1.00  0.00    +0.000 C 
ATOM    149  N   ARG A  20      24.836 -25.722  -2.571  1.00  0.00    -0.196 N 
ATOM    150  CA  ARG A  20      26.166 -26.301  -2.735  1.00  0.00    +0.173 C 
ATOM    151  C   ARG A  20      26.586 -26.296  -4.196  1.00  0.00    +0.261 C 
ATOM    152  O   ARG A  20      26.447 -25.283  -4.883  1.00  0.00    -0.271 OA
ATOM    153  CB  ARG A  20      26.208 -27.722  -2.200  1.00  0.00    +0.033 C 
ATOM    154  N   ARG A  21      27.099 -27.425  -4.673  1.00  0.00    -0.204 N 
ATOM    155  CA  ARG A  21      26.373 -28.243  -5.641  1.00  0.00    +0.115 C 
ATOM    156  CB  ARG A  21      27.230 -28.522  -6.865  1.00  0.00    +0.025 C 
ATOM    157  CG  ARG A  21      26.870 -27.675  -8.074  1.00  0.00    +0.028 C 
ATOM    158  CD  ARG A  21      27.667 -28.078  -9.304  1.00  0.00    +0.129 C 
ATOM    159  NE  ARG A  21      27.653 -27.031 -10.322  1.00  0.00    -0.234 NA
ATOM    160  CZ  ARG A  21      28.453 -26.995 -11.384  1.00  0.00    +0.284 C 
ATOM    161  NH1 ARG A  21      28.721 -25.843 -11.993  1.00  0.00    -0.104 N 
ATOM    162  NH2 ARG A  21      28.990 -28.123 -11.841  1.00  0.00    -0.104 N 
ATOM    163  H   MET A   1       8.709  -7.945  20.830  1.00  0.00    +0.000 HD
ATOM    164  H   MET A   1       9.869  -6.889  20.269  1.00  0.00    +0.000 HD
ATOM    165  H   LYS A   2      12.275  -9.062  23.187  1.00  0.00    +0.000 HD
ATOM    166  H   LYS A   2      18.797 -11.168  23.733  1.00  0.00    +0.000 HD
ATOM    167  H   GLN A   3      15.543  -6.394  21.440  1.00  0.00    +0.000 HD
ATOM    168  H   GLN A   3      15.198  -5.346  16.951  1.00  0.00    +0.000 HD
ATOM    169  H   GLN A   3      13.973  -4.658  17.916  1.00  0.00    +0.000 HD
ATOM    170  H   ALA A   4      18.157  -9.770  19.740  1.00  0.00    +0.000 HD
ATOM    171  H   VAL A   5      21.728 -10.043  22.620  1.00  0.00    +0.000 HD
ATOM    172  H   PHE A   6      25.296  -8.402  19.800  1.00  0.00    +0.000 HD
ATOM    173  H   ALA A   7      22.607 -11.020  17.442  1.00  0.00    +0.000 HD
ATOM    174  H   LEU A   8      24.347 -11.727  12.832  1.00  0.00    +0.000 HD
ATOM    175  H   LEU A   9      25.926  -7.982  12.666  1.00  0.00    +0.000 HD
ATOM    176  H   GLN A  10      27.782 -11.636  10.606  1.00  0.00    +0.000 HD
ATOM    177  H   GLN A  10      32.986 -12.535   7.360  1.00  0.00    +0.000 HD
ATOM    178  H   GLN A  10      31.737 -13.384   8.153  1.00  0.00    +0.000 HD
ATOM    179  H   VAL A  11      25.718 -10.923   8.851  1.00  0.00    +0.000 HD
ATOM    180  H   PHE A  12      24.745 -12.718   4.875  1.00  0.00    +0.000 HD
ATOM    181  H   ALA A  13      20.438 -11.435   5.922  1.00  0.00    +0.000 HD
ATOM    182  H   GLY A  14      18.374 -15.300   4.376  1.00  0.00    +0.000 HD
ATOM    183  H   SER A  15      19.836 -15.806  -0.223  1.00  0.00    +0.000 HD
ATOM    184  H   SER A  15      18.427 -18.508  -1.926  1.00  0.00    +0.000 HD
ATOM    185  H   SER A  16      15.432 -17.343  -0.061  1.00  0.00    +0.000 HD
ATOM    186  H   SER A  16      14.028 -19.671   2.178  1.00  0.00    +0.000 HD
ATOM    187  H   ASP A  17      16.847 -18.685  -2.065  1.00  0.00    +0.000 HD
ATOM    188  H   ASP A  17      17.965 -18.351  -6.037  1.00  0.00    +0.000 HD
ATOM    189  H   TRP A  18      18.983 -22.714  -2.201  1.00  0.00    +0.000 HD
ATOM    190  H   ILE A  19      23.423 -21.899  -2.588  1.00  0.00    +0.000 HD
ATOM    191  H   ARG A  20      24.052 -26.316  -2.533  1.00  0.00    +0.000 HD
ATOM    192  H   ARG A  21      27.988 -27.716  -4.368  1.00  0.00    +0.000 HD
ATOM    193  H   ARG A  21      29.315 -25.828 -12.779  1.00  0.00    +0.000 HD
ATOM    194  H   ARG A  21      28.327 -25.006 -11.657  1.00  0.00    +0.000 HD
ATOM    195  H   ARG A  21      29.583 -28.103 -12.627  1.00  0.00    +0.000 HD
ATOM    196  H   ARG A  21      28.795 -28.977 -11.392  1.00  0.00    +0.000 HD
ATOM      1  CG  ARG A  20      25.332 -28.696  -2.972  1.00  0.00    +0.000 C 
ATOM      1  CD  ARG A  20      26.158 -29.745  -3.698  1.00  0.00    +0.000 C 
ATOM      1  NE  ARG A  20      25.322 -30.814  -4.232  1.00  0.00    -0.030 NA
ATOM      2  CZ  ARG A  20      25.558 -32.114  -4.074  1.00  0.00    +0.324 C 
ATOM      3  NH1 ARG A  20      25.059 -32.772  -3.031  1.00  0.00    -0.101 N 
ATOM      4  NH2 ARG A  20      26.302 -32.760  -4.967  1.00  0.00    -0.101 N 
ATOM      5  C   ARG A  21      25.931 -29.557  -5.020  1.00  0.00    +0.445 C 
ATOM      6  O   ARG A  21      25.644 -30.519  -5.731  1.00  0.00    -0.235 OA
ATOM      7  OXT ARG A  21      25.855 -29.677  -3.798  1.00  0.00    -0.302 OA
ATOM      8  H   ARG A  20      25.240 -33.734  -2.924  1.00  0.00    +0.000 HD
ATOM      9  H   ARG A  20      24.508 -32.298  -2.367  1.00  0.00    +0.000 HD
ATOM     10  H   ARG A  20      26.480 -33.721  -4.856  1.00  0.00    +0.000 HD
ATOM     11  H   ARG A  20      26.674 -32.277  -5.740  1.00  0.00    +0.000 HD
ENDROOT
TORSDOF 0
