REMARK  Name = /var/folders/yp/yjbh3p597675h2qddgqr02y00000gn/T/tmpedwo5ny3.pdb
REMARK     285 UNITARY VALUES FOR THE UNIT CELL AUTOMATICALLY SET
REMARK     285 BY MDANALYSIS PDBWRITER BECAUSE UNIT CELL INFORMATION
REMARK     285 WAS MISSING.
REMARK     285 PROTEIN DATA BANK CONVENTIONS REQUIRE THAT
REMARK     285 CRYST1 RECORD IS INCLUDED, BUT THE VALUES ON
REMARK     285 THIS RECORD ARE MEANINGLESS.
REMARK     285 UNITARY VALUES FOR THE UNIT CELL AUTOMATICALLY SET
REMARK     285 BY MDANALYSIS PDBWRITER BECAUSE UNIT CELL INFORMATION
REMARK     285 WAS MISSING.
REMARK     285 PROTEIN DATA BANK CONVENTIONS REQUIRE THAT
REMARK     285 CRYST1 RECORD IS INCLUDED, BUT THE VALUES ON
REMARK     285 THIS RECORD ARE MEANINGLESS.
REMARK                            x       y       z     vdW  Elec       q    Type
REMARK                         _______ _______ _______ _____ _____    ______ ____
ROOT
ATOM      1  N   MET A   1      13.714  23.055  -5.814  1.00  0.00    -0.123 NA
ATOM      2  CA  MET A   1      14.182  24.433  -5.940  1.00  0.00    +0.170 C 
ATOM      3  C   MET A   1      13.074  25.415  -5.598  1.00  0.00    +0.259 C 
ATOM      4  O   MET A   1      11.898  25.134  -5.823  1.00  0.00    -0.272 OA
ATOM      5  CB  MET A   1      14.686  24.708  -7.347  1.00  0.00    +0.040 C 
ATOM      6  CG  MET A   1      13.577  24.831  -8.380  1.00  0.00    +0.060 C 
ATOM      7  SD  MET A   1      13.636  23.521  -9.627  1.00  0.00    -0.139 S 
ATOM      8  CE  MET A   1      13.027  24.405 -11.060  1.00  0.00    +0.069 C 
ATOM      9  N   LYS A   2      13.448  26.570  -5.052  1.00  0.00    -0.197 N 
ATOM     10  CA  LYS A   2      12.603  27.260  -4.083  1.00  0.00    +0.173 C 
ATOM     11  C   LYS A   2      11.367  27.841  -4.750  1.00  0.00    +0.262 C 
ATOM     12  O   LYS A   2      11.471  28.545  -5.753  1.00  0.00    -0.271 OA
ATOM     13  CB  LYS A   2      13.373  28.371  -3.388  1.00  0.00    +0.031 C 
ATOM     14  CG  LYS A   2      12.654  28.961  -2.186  1.00  0.00    +0.009 C 
ATOM     15  CD  LYS A   2      13.283  30.269  -1.738  1.00  0.00    +0.049 C 
ATOM     16  CE  LYS A   2      14.728  30.272  -1.944  1.00  0.00    +0.096 C 
ATOM     17  NZ  LYS A   2      15.628  30.536  -1.001  1.00  0.00    -0.151 NA
ATOM     18  N   GLN A   3      10.196  27.547  -4.194  1.00  0.00    -0.196 N 
ATOM     19  CA  GLN A   3       9.365  28.580  -3.580  1.00  0.00    +0.173 C 
ATOM     20  C   GLN A   3       9.296  28.402  -2.072  1.00  0.00    +0.262 C 
ATOM     21  O   GLN A   3       9.305  27.277  -1.575  1.00  0.00    -0.271 OA
ATOM     22  CB  GLN A   3       7.959  28.559  -4.157  1.00  0.00    +0.041 C 
ATOM     23  CG  GLN A   3       7.904  28.865  -5.645  1.00  0.00    +0.091 C 
ATOM     24  CD  GLN A   3       8.486  30.225  -5.989  1.00  0.00    +0.261 C 
ATOM     25  OE1 GLN A   3       9.099  30.888  -5.139  1.00  0.00    -0.272 OA
ATOM     26  NE2 GLN A   3       8.301  30.653  -7.235  1.00  0.00    -0.088 N 
ATOM     27  N   ALA A   4       9.229  29.512  -1.344  1.00  0.00    -0.196 N 
ATOM     28  CA  ALA A   4      10.267  29.848  -0.373  1.00  0.00    +0.173 C 
ATOM     29  C   ALA A   4      10.464  28.722   0.629  1.00  0.00    +0.262 C 
ATOM     30  O   ALA A   4       9.570  27.901   0.831  1.00  0.00    -0.271 OA
ATOM     31  CB  ALA A   4       9.920  31.129   0.367  1.00  0.00    +0.033 C 
ATOM     32  N   VAL A   5      11.636  28.680   1.258  1.00  0.00    -0.196 N 
ATOM     33  CA  VAL A   5      11.805  27.931   2.500  1.00  0.00    +0.173 C 
ATOM     34  C   VAL A   5      11.203  28.712   3.657  1.00  0.00    +0.262 C 
ATOM     35  O   VAL A   5      11.431  29.914   3.785  1.00  0.00    -0.271 OA
ATOM     36  CB  VAL A   5      13.268  27.640   2.792  1.00  0.00    +0.029 C 
ATOM     37  CG1 VAL A   5      13.404  26.449   3.738  1.00  0.00    +0.002 C 
ATOM     38  CG2 VAL A   5      14.011  27.303   1.500  1.00  0.00    +0.002 C 
ATOM     39  N   PHE A   6      10.433  28.030   4.500  1.00  0.00    -0.196 N 
ATOM     40  CA  PHE A   6      10.366  28.374   5.917  1.00  0.00    +0.177 C 
ATOM     41  C   PHE A   6      11.682  28.058   6.609  1.00  0.00    +0.262 C 
ATOM     42  O   PHE A   6      12.003  26.894   6.841  1.00  0.00    -0.271 OA
ATOM     43  CB  PHE A   6       9.238  27.623   6.605  1.00  0.00    +0.057 C 
ATOM     44  CG  PHE A   6       8.356  28.495   7.449  1.00  0.00    -0.020 A 
ATOM     45  CD1 PHE A   6       7.550  29.455   6.848  1.00  0.00    -0.004 A 
ATOM     46  CE1 PHE A   6       6.732  30.263   7.631  1.00  0.00    -0.001 A 
ATOM     47  CD2 PHE A   6       8.344  28.342   8.830  1.00  0.00    -0.008 A 
ATOM     48  CE2 PHE A   6       7.525  29.150   9.612  1.00  0.00    -0.021 A 
ATOM     49  CZ  PHE A   6       6.719  30.110   9.012  1.00  0.00    -0.004 A 
ATOM     50  N   ALA A   7      12.445  29.096   6.942  1.00  0.00    -0.196 N 
ATOM     51  CA  ALA A   7      13.293  29.067   8.130  1.00  0.00    +0.173 C 
ATOM     52  C   ALA A   7      12.463  29.196   9.398  1.00  0.00    +0.262 C 
ATOM     53  O   ALA A   7      13.012  29.287  10.495  1.00  0.00    -0.271 OA
ATOM     54  CB  ALA A   7      14.324  30.184   8.084  1.00  0.00    +0.033 C 
ATOM     55  N   LEU A   8      11.142  29.203   9.247  1.00  0.00    -0.196 N 
ATOM     56  CA  LEU A   8      10.249  29.390  10.386  1.00  0.00    +0.177 C 
ATOM     57  C   LEU A   8       9.861  28.051  10.996  1.00  0.00    +0.262 C 
ATOM     58  O   LEU A   8       9.626  27.083  10.276  1.00  0.00    -0.271 OA
ATOM     59  CB  LEU A   8       8.994  30.139   9.970  1.00  0.00    +0.051 C 
ATOM     60  CG  LEU A   8       9.114  31.663   9.898  1.00  0.00    +0.006 C 
ATOM     61  CD1 LEU A   8       8.335  32.197   8.701  1.00  0.00    +0.000 C 
ATOM     62  CD2 LEU A   8      10.517  32.070   9.462  1.00  0.00    +0.000 C 
ATOM     63  N   LEU A   9       9.795  27.998  12.324  1.00  0.00    -0.196 N 
ATOM     64  CA  LEU A   9       9.131  26.892  13.007  1.00  0.00    +0.173 C 
ATOM     65  C   LEU A   9       7.624  27.090  13.020  1.00  0.00    +0.262 C 
ATOM     66  O   LEU A   9       7.135  28.136  13.443  1.00  0.00    -0.271 OA
ATOM     67  CB  LEU A   9       9.638  26.759  14.434  1.00  0.00    +0.031 C 
ATOM     68  CG  LEU A   9       9.712  25.337  14.994  1.00  0.00    +0.002 C 
ATOM     69  CD1 LEU A   9       9.696  25.367  16.518  1.00  0.00    +0.000 C 
ATOM     70  CD2 LEU A   9      11.104  24.752  14.787  1.00  0.00    +0.000 C 
ATOM     71  N   GLN A  10       6.887  26.084  12.557  1.00  0.00    -0.196 N 
ATOM     72  CA  GLN A  10       5.498  25.907  12.973  1.00  0.00    +0.173 C 
ATOM     73  C   GLN A  10       5.416  25.198  14.315  1.00  0.00    +0.262 C 
ATOM     74  O   GLN A  10       6.153  24.247  14.567  1.00  0.00    -0.271 OA
ATOM     75  CB  GLN A  10       4.719  25.118  11.933  1.00  0.00    +0.041 C 
ATOM     76  CG  GLN A  10       3.234  25.011  12.234  1.00  0.00    +0.091 C 
ATOM     77  CD  GLN A  10       2.459  24.304  11.132  1.00  0.00    +0.261 C 
ATOM     78  OE1 GLN A  10       2.914  23.289  10.585  1.00  0.00    -0.272 OA
ATOM     79  NE2 GLN A  10       1.284  24.833  10.801  1.00  0.00    -0.088 N 
ATOM     80  N   VAL A  11       4.516  25.661  15.179  1.00  0.00    -0.196 N 
ATOM     81  CA  VAL A  11       3.274  24.939  15.441  1.00  0.00    +0.173 C 
ATOM     82  C   VAL A  11       2.086  25.857  15.201  1.00  0.00    +0.262 C 
ATOM     83  O   VAL A  11       2.096  27.013  15.619  1.00  0.00    -0.271 OA
ATOM     84  CB  VAL A  11       3.218  24.401  16.861  1.00  0.00    +0.029 C 
ATOM     85  CG1 VAL A  11       2.505  23.051  16.898  1.00  0.00    +0.002 C 
ATOM     86  CG2 VAL A  11       4.629  24.202  17.411  1.00  0.00    +0.002 C 
ATOM     87  N   PHE A  12       1.063  25.344  14.522  1.00  0.00    -0.196 N 
ATOM     88  CA  PHE A  12      -0.259  25.962  14.557  1.00  0.00    +0.177 C 
ATOM     89  C   PHE A  12      -1.075  25.423  15.720  1.00  0.00    +0.262 C 
ATOM     90  O   PHE A  12      -1.623  26.194  16.508  1.00  0.00    -0.271 OA
ATOM     91  CB  PHE A  12      -1.006  25.718  13.256  1.00  0.00    +0.057 C 
ATOM     92  CG  PHE A  12      -2.081  26.724  12.976  1.00  0.00    -0.020 A 
ATOM     93  CD1 PHE A  12      -3.259  26.706  13.712  1.00  0.00    -0.004 A 
ATOM     94  CE1 PHE A  12      -4.256  27.639  13.452  1.00  0.00    -0.000 A 
ATOM     95  CD2 PHE A  12      -1.899  27.676  11.979  1.00  0.00    -0.004 A 
ATOM     96  CE2 PHE A  12      -2.896  28.609  11.719  1.00  0.00    -0.000 A 
ATOM     97  CZ  PHE A  12      -4.076  28.590  12.455  1.00  0.00    -0.000 A 
ATOM     98  N   ALA A  13      -1.158  24.101  15.829  1.00  0.00    -0.196 N 
ATOM     99  CA  ALA A  13      -2.405  23.392  15.552  1.00  0.00    +0.173 C 
ATOM    100  C   ALA A  13      -3.534  23.911  16.429  1.00  0.00    +0.262 C 
ATOM    101  O   ALA A  13      -3.431  23.893  17.654  1.00  0.00    -0.271 OA
ATOM    102  CB  ALA A  13      -2.236  21.898  15.773  1.00  0.00    +0.033 C 
ATOM    103  N   GLY A  14      -4.612  24.372  15.800  1.00  0.00    -0.194 N 
ATOM    104  CA  GLY A  14      -5.950  24.194  16.357  1.00  0.00    +0.201 C 
ATOM    105  C   GLY A  14      -6.437  25.473  17.018  1.00  0.00    +0.264 C 
ATOM    106  O   GLY A  14      -5.912  25.882  18.051  1.00  0.00    -0.271 OA
ATOM    107  N   SER A  15      -7.442  26.108  16.420  1.00  0.00    -0.194 N 
ATOM    108  CA  SER A  15      -8.071  27.278  17.026  1.00  0.00    +0.205 C 
ATOM    109  C   SER A  15      -9.157  26.873  18.010  1.00  0.00    +0.264 C 
ATOM    110  O   SER A  15      -9.828  25.861  17.817  1.00  0.00    -0.271 OA
ATOM    111  CB  SER A  15      -8.666  28.181  15.957  1.00  0.00    +0.213 C 
ATOM    112  OG  SER A  15      -9.876  27.641  15.459  1.00  0.00    -0.218 OA
ATOM    113  N   SER A  16      -9.328  27.663  19.065  1.00  0.00    -0.194 N 
ATOM    114  CA  SER A  16     -10.625  27.777  19.727  1.00  0.00    +0.205 C 
ATOM    115  C   SER A  16     -11.595  28.608  18.901  1.00  0.00    +0.264 C 
ATOM    116  O   SER A  16     -11.185  29.532  18.200  1.00  0.00    -0.271 OA
ATOM    117  CB  SER A  16     -10.473  28.398  21.105  1.00  0.00    +0.213 C 
ATOM    118  OG  SER A  16     -10.588  29.810  21.034  1.00  0.00    -0.218 OA
ATOM    119  N   ASP A  17     -12.881  28.281  18.982  1.00  0.00    -0.196 N 
ATOM    120  CA  ASP A  17     -13.859  29.185  19.582  1.00  0.00    +0.184 C 
ATOM    121  C   ASP A  17     -14.187  28.765  21.005  1.00  0.00    +0.262 C 
ATOM    122  O   ASP A  17     -14.142  27.579  21.333  1.00  0.00    -0.271 OA
ATOM    123  CB  ASP A  17     -15.134  29.230  18.758  1.00  0.00    +0.145 C 
ATOM    124  CG  ASP A  17     -14.932  29.839  17.380  1.00  0.00    +0.367 C 
ATOM    125  OD1 ASP A  17     -13.819  30.324  17.085  1.00  0.00    -0.246 OA
ATOM    126  OD2 ASP A  17     -15.895  29.832  16.584  1.00  0.00    -0.246 OA
ATOM    127  N   TRP A  18     -14.520  29.734  21.852  1.00  0.00    -0.196 N 
ATOM    128  CA  TRP A  18     -15.244  29.449  23.088  1.00  0.00    +0.177 C 
ATOM    129  C   TRP A  18     -16.656  30.005  23.032  1.00  0.00    +0.262 C 
ATOM    130  O   TRP A  18     -16.937  30.919  22.258  1.00  0.00    -0.271 OA
ATOM    131  CB  TRP A  18     -14.514  30.036  24.287  1.00  0.00    +0.055 C 
ATOM    132  CG  TRP A  18     -14.152  31.483  24.135  1.00  0.00    -0.014 C 
ATOM    133  CD1 TRP A  18     -14.825  32.561  24.647  1.00  0.00    +0.091 C 
ATOM    134  CD2 TRP A  18     -13.029  32.013  23.425  1.00  0.00    +0.082 C 
ATOM    135  NE1 TRP A  18     -14.158  33.711  24.277  1.00  0.00    -0.248 NA
ATOM    136  CE2 TRP A  18     -13.056  33.408  23.529  1.00  0.00    +0.066 C 
ATOM    137  CE3 TRP A  18     -11.982  31.435  22.697  1.00  0.00    -0.016 C 
ATOM    138  CZ2 TRP A  18     -12.059  34.176  22.915  1.00  0.00    +0.015 C 
ATOM    139  CZ3 TRP A  18     -11.010  32.248  22.104  1.00  0.00    -0.004 C 
ATOM    140  CH2 TRP A  18     -11.034  33.546  22.199  1.00  0.00    +0.001 C 
ATOM    141  N   ILE A  19     -17.547  29.452  23.849  1.00  0.00    -0.196 N 
ATOM    142  CA  ILE A  19     -18.717  30.193  24.313  1.00  0.00    +0.173 C 
ATOM    143  C   ILE A  19     -18.589  30.475  25.800  1.00  0.00    +0.262 C 
ATOM    144  O   ILE A  19     -18.201  29.598  26.573  1.00  0.00    -0.271 OA
ATOM    145  CB  ILE A  19     -20.009  29.439  24.048  1.00  0.00    +0.029 C 
ATOM    146  CG1 ILE A  19     -20.131  29.081  22.569  1.00  0.00    +0.002 C 
ATOM    147  CG2 ILE A  19     -21.213  30.280  24.468  1.00  0.00    +0.002 C 
ATOM    148  CD1 ILE A  19     -20.618  27.662  22.315  1.00  0.00    +0.000 C 
ATOM    149  N   ARG A  20     -18.915  31.699  26.207  1.00  0.00    -0.196 N 
ATOM    150  CA  ARG A  20     -19.779  31.911  27.364  1.00  0.00    +0.173 C 
ATOM    151  C   ARG A  20     -21.240  31.699  26.998  1.00  0.00    +0.262 C 
ATOM    152  O   ARG A  20     -21.926  30.882  27.614  1.00  0.00    -0.271 OA
ATOM    153  CB  ARG A  20     -19.596  33.311  27.929  1.00  0.00    +0.033 C 
ATOM    154  CG  ARG A  20     -20.480  33.609  29.128  1.00  0.00    +0.029 C 
ATOM    155  CD  ARG A  20     -20.161  32.701  30.305  1.00  0.00    +0.129 C 
ATOM    156  NE  ARG A  20     -20.658  33.255  31.561  1.00  0.00    -0.234 NA
ATOM    157  CZ  ARG A  20     -21.561  32.670  32.344  1.00  0.00    +0.284 C 
ATOM    158  NH1 ARG A  20     -21.958  31.422  32.107  1.00  0.00    -0.104 N 
ATOM    159  NH2 ARG A  20     -22.074  33.341  33.371  1.00  0.00    -0.104 N 
ATOM    160  N   ARG A  21     -21.718  32.433  25.999  1.00  0.00    -0.194 N 
ATOM    161  CA  ARG A  21     -22.982  33.151  26.120  1.00  0.00    +0.198 C 
ATOM    162  C   ARG A  21     -24.127  32.344  25.532  1.00  0.00    +0.384 C 
ATOM    163  O   ARG A  21     -25.157  32.901  25.153  1.00  0.00    -0.244 OA
ATOM    164  CB  ARG A  21     -22.905  34.502  25.426  1.00  0.00    +0.035 C 
ATOM    165  CG  ARG A  21     -21.934  35.472  26.077  1.00  0.00    +0.029 C 
ATOM    166  CD  ARG A  21     -22.571  36.214  27.240  1.00  0.00    +0.129 C 
ATOM    167  NE  ARG A  21     -23.849  35.621  27.623  1.00  0.00    -0.234 NA
ATOM    168  CZ  ARG A  21     -24.486  35.863  28.765  1.00  0.00    +0.284 C 
ATOM    169  NH1 ARG A  21     -24.006  36.749  29.634  1.00  0.00    -0.104 N 
ATOM    170  NH2 ARG A  21     -25.613  35.214  29.041  1.00  0.00    -0.104 N 
ATOM    171  OXT ARG A  21     -24.039  31.121  25.424  1.00  0.00    -0.244 OA
ATOM    172  H   MET A   1      13.381  22.894  -4.864  1.00  0.00    +0.000 HD
ATOM    173  H   MET A   1      14.483  22.415  -6.018  1.00  0.00    +0.000 HD
ATOM    174  H   LYS A   2      14.312  26.966  -5.308  1.00  0.00    +0.000 HD
ATOM    175  H   LYS A   2      15.334  30.750  -0.086  1.00  0.00    +0.000 HD
ATOM    176  H   GLN A   3       9.881  26.614  -4.197  1.00  0.00    +0.000 HD
ATOM    177  H   GLN A   3       7.808  30.095  -7.879  1.00  0.00    +0.000 HD
ATOM    178  H   GLN A   3       8.656  31.528  -7.513  1.00  0.00    +0.000 HD
ATOM    179  H   ALA A   4       8.464  30.120  -1.461  1.00  0.00    +0.000 HD
ATOM    180  H   VAL A   5      12.405  29.164   0.878  1.00  0.00    +0.000 HD
ATOM    181  H   PHE A   6       9.897  27.277   4.162  1.00  0.00    +0.000 HD
ATOM    182  H   ALA A   7      12.438  29.900   6.376  1.00  0.00    +0.000 HD
ATOM    183  H   LEU A   8      10.759  29.079   8.349  1.00  0.00    +0.000 HD
ATOM    184  H   LEU A   9      10.202  28.719  12.856  1.00  0.00    +0.000 HD
ATOM    185  H   GLN A  10       7.285  25.446  11.922  1.00  0.00    +0.000 HD
ATOM    186  H   GLN A  10       0.739  24.418  10.094  1.00  0.00    +0.000 HD
ATOM    187  H   GLN A  10       0.960  25.640  11.262  1.00  0.00    +0.000 HD
ATOM    188  H   VAL A  11       4.692  26.507  15.651  1.00  0.00    +0.000 HD
ATOM    189  H   PHE A  12       1.200  24.530  13.985  1.00  0.00    +0.000 HD
ATOM    190  H   ALA A  13      -0.362  23.588  16.101  1.00  0.00    +0.000 HD
ATOM    191  H   GLY A  14      -4.505  24.844  14.943  1.00  0.00    +0.000 HD
ATOM    192  H   SER A  15      -7.769  25.781  15.551  1.00  0.00    +0.000 HD
ATOM    193  H   SER A  15     -10.518  27.562  16.183  1.00  0.00    +0.000 HD
ATOM    194  H   SER A  16      -8.565  28.182  19.408  1.00  0.00    +0.000 HD
ATOM    195  H   SER A  16      -9.891  30.163  20.460  1.00  0.00    +0.000 HD
ATOM    196  H   ASP A  17     -13.181  27.412  18.631  1.00  0.00    +0.000 HD
ATOM    197  H   ASP A  17     -13.122  30.310  17.710  1.00  0.00    +0.000 HD
ATOM    198  H   TRP A  18     -14.274  30.663  21.641  1.00  0.00    +0.000 HD
ATOM    199  H   ILE A  19     -17.416  28.524  24.148  1.00  0.00    +0.000 HD
ATOM    200  H   ARG A  20     -18.566  32.478  25.717  1.00  0.00    +0.000 HD
ATOM    201  H   ARG A  20     -22.627  30.998  32.692  1.00  0.00    +0.000 HD
ATOM    202  H   ARG A  20     -21.582  30.921  31.347  1.00  0.00    +0.000 HD
ATOM    203  H   ARG A  20     -22.742  32.914  33.953  1.00  0.00    +0.000 HD
ATOM    204  H   ARG A  20     -21.784  34.265  33.549  1.00  0.00    +0.000 HD
ATOM    205  H   ARG A  21     -21.208  32.493  25.159  1.00  0.00    +0.000 HD
ATOM    206  H   ARG A  21     -24.485  36.920  30.477  1.00  0.00    +0.000 HD
ATOM    207  H   ARG A  21     -23.172  37.232  29.435  1.00  0.00    +0.000 HD
ATOM    208  H   ARG A  21     -25.973  34.558  28.401  1.00  0.00    +0.000 HD
ATOM    209  H   ARG A  21     -26.089  35.389  29.885  1.00  0.00    +0.000 HD
ATOM    210  H   ARG A  21     -23.262  30.681  25.707  1.00  0.00    +0.000 HD
ENDROOT
TORSDOF 0
