REMARK  Name = /var/folders/yp/yjbh3p597675h2qddgqr02y00000gn/T/tmpw9fu_mza.pdb
REMARK     285 UNITARY VALUES FOR THE UNIT CELL AUTOMATICALLY SET
REMARK     285 BY MDANALYSIS PDBWRITER BECAUSE UNIT CELL INFORMATION
REMARK     285 WAS MISSING.
REMARK     285 PROTEIN DATA BANK CONVENTIONS REQUIRE THAT
REMARK     285 CRYST1 RECORD IS INCLUDED, BUT THE VALUES ON
REMARK     285 THIS RECORD ARE MEANINGLESS.
REMARK     285 UNITARY VALUES FOR THE UNIT CELL AUTOMATICALLY SET
REMARK     285 BY MDANALYSIS PDBWRITER BECAUSE UNIT CELL INFORMATION
REMARK     285 WAS MISSING.
REMARK     285 PROTEIN DATA BANK CONVENTIONS REQUIRE THAT
REMARK     285 CRYST1 RECORD IS INCLUDED, BUT THE VALUES ON
REMARK     285 THIS RECORD ARE MEANINGLESS.
REMARK                            x       y       z     vdW  Elec       q    Type
REMARK                         _______ _______ _______ _____ _____    ______ ____
REMARK  Name = /var/folders/yp/yjbh3p597675h2qddgqr02y00000gn/T/tmpw9fu_mza.pdb
REMARK     285 UNITARY VALUES FOR THE UNIT CELL AUTOMATICALLY SET
REMARK     285 BY MDANALYSIS PDBWRITER BECAUSE UNIT CELL INFORMATION
REMARK     285 WAS MISSING.
REMARK     285 PROTEIN DATA BANK CONVENTIONS REQUIRE THAT
REMARK     285 CRYST1 RECORD IS INCLUDED, BUT THE VALUES ON
REMARK     285 THIS RECORD ARE MEANINGLESS.
REMARK     285 UNITARY VALUES FOR THE UNIT CELL AUTOMATICALLY SET
REMARK     285 BY MDANALYSIS PDBWRITER BECAUSE UNIT CELL INFORMATION
REMARK     285 WAS MISSING.
REMARK     285 PROTEIN DATA BANK CONVENTIONS REQUIRE THAT
REMARK     285 CRYST1 RECORD IS INCLUDED, BUT THE VALUES ON
REMARK     285 THIS RECORD ARE MEANINGLESS.
REMARK                            x       y       z     vdW  Elec       q    Type
REMARK                         _______ _______ _______ _____ _____    ______ ____
ROOT
ATOM      1  N   MET A   1      15.374   2.116 -28.001  1.00  0.00    -0.123 NA
ATOM      2  CA  MET A   1      15.003   3.384 -28.625  1.00  0.00    +0.170 C 
ATOM      3  C   MET A   1      14.066   4.176 -27.729  1.00  0.00    +0.259 C 
ATOM      4  O   MET A   1      13.163   3.612 -27.113  1.00  0.00    -0.272 OA
ATOM      5  CB  MET A   1      14.339   3.150 -29.972  1.00  0.00    +0.040 C 
ATOM      6  CG  MET A   1      14.750   4.154 -31.037  1.00  0.00    +0.060 C 
ATOM      7  SD  MET A   1      16.545   4.330 -31.175  1.00  0.00    -0.139 S 
ATOM      8  CE  MET A   1      17.000   4.429 -29.448  1.00  0.00    +0.069 C 
ATOM      9  N   LYS A   2      14.280   5.487 -27.654  1.00  0.00    -0.197 N 
ATOM     10  CA  LYS A   2      13.536   6.327 -26.719  1.00  0.00    +0.173 C 
ATOM     11  C   LYS A   2      12.760   7.407 -27.453  1.00  0.00    +0.262 C 
ATOM     12  O   LYS A   2      13.309   8.096 -28.311  1.00  0.00    -0.271 OA
ATOM     13  CB  LYS A   2      14.471   6.971 -25.708  1.00  0.00    +0.031 C 
ATOM     14  CG  LYS A   2      14.893   6.042 -24.581  1.00  0.00    +0.009 C 
ATOM     15  CD  LYS A   2      15.880   6.709 -23.639  1.00  0.00    +0.049 C 
ATOM     16  CE  LYS A   2      17.174   6.929 -24.281  1.00  0.00    +0.096 C 
ATOM     17  NZ  LYS A   2      18.349   6.613 -23.745  1.00  0.00    -0.151 NA
ATOM     18  N   GLN A   3      11.482   7.557 -27.116  1.00  0.00    -0.196 N 
ATOM     19  CA  GLN A   3      10.865   8.879 -27.038  1.00  0.00    +0.173 C 
ATOM     20  C   GLN A   3      11.347   9.636 -25.812  1.00  0.00    +0.262 C 
ATOM     21  O   GLN A   3      11.097   9.217 -24.682  1.00  0.00    -0.271 OA
ATOM     22  CB  GLN A   3       9.351   8.770 -27.005  1.00  0.00    +0.041 C 
ATOM     23  CG  GLN A   3       8.737   8.354 -28.332  1.00  0.00    +0.091 C 
ATOM     24  CD  GLN A   3       7.233   8.152 -28.249  1.00  0.00    +0.261 C 
ATOM     25  OE1 GLN A   3       6.757   7.134 -27.727  1.00  0.00    -0.272 OA
ATOM     26  NE2 GLN A   3       6.476   9.118 -28.761  1.00  0.00    -0.088 N 
ATOM     27  N   ALA A   4      12.037  10.750 -26.030  1.00  0.00    -0.196 N 
ATOM     28  CA  ALA A   4      11.760  11.975 -25.287  1.00  0.00    +0.173 C 
ATOM     29  C   ALA A   4      10.320  12.420 -25.482  1.00  0.00    +0.261 C 
ATOM     30  O   ALA A   4       9.769  12.297 -26.575  1.00  0.00    -0.271 OA
ATOM     31  CB  ALA A   4      12.699  13.091 -25.716  1.00  0.00    +0.033 C 
ATOM     32  N   VAL A   5       9.707  12.939 -24.422  1.00  0.00    -0.204 N 
ATOM     33  CA  VAL A   5       8.476  13.714 -24.559  1.00  0.00    +0.024 C 
ATOM     34  CB  VAL A   5       7.636  13.673 -23.294  1.00  0.00    +0.041 C 
ATOM     35  CG1 VAL A   5       6.481  14.667 -23.379  1.00  0.00    +0.168 C 
ATOM     36  CG2 VAL A   5       7.045  12.279 -23.092  1.00  0.00    +0.004 C 
ATOM     37  CA  LEU A   9       6.700  14.867 -25.244  1.00  0.00    +0.091 C 
ATOM     38  C   LEU A   9       5.322  15.496 -25.371  1.00  0.00    +0.242 C 
ATOM     39  O   LEU A   9       4.758  15.550 -26.463  1.00  0.00    -0.273 OA
ATOM     40  CB  LEU A   9       6.687  13.837 -24.126  1.00  0.00    +0.053 C 
ATOM     41  CG  LEU A   9       7.626  12.642 -24.301  1.00  0.00    +0.005 C 
ATOM     42  CD1 LEU A   9       7.387  11.616 -23.198  1.00  0.00    +0.000 C 
ATOM     43  CD2 LEU A   9       9.058  13.030 -23.951  1.00  0.00    +0.115 C 
ATOM     44  N   GLN A  10       4.779  15.973 -24.254  1.00  0.00    -0.198 N 
ATOM     45  CA  GLN A  10       5.389  17.083 -23.528  1.00  0.00    +0.171 C 
ATOM     46  C   GLN A  10       6.283  16.576 -22.407  1.00  0.00    +0.216 C 
ATOM     47  O   GLN A  10       6.150  15.436 -21.966  1.00  0.00    -0.466 OA
ATOM     48  CB  GLN A  10       4.325  18.002 -22.953  1.00  0.00    +0.041 C 
ATOM     49  CG  GLN A  10       3.521  18.744 -24.007  1.00  0.00    +0.091 C 
ATOM     50  CD  GLN A  10       2.132  19.132 -23.524  1.00  0.00    +0.261 C 
ATOM     51  OE1 GLN A  10       1.912  19.345 -22.323  1.00  0.00    -0.272 OA
ATOM     52  NE2 GLN A  10       1.187  19.229 -24.455  1.00  0.00    -0.088 N 
ATOM     53  N   VAL A  11       7.196  17.425 -21.944  1.00  0.00    -0.233 NA
ATOM     54  CA  VAL A  11       7.920  17.160 -20.704  1.00  0.00    +0.183 C 
ATOM     55  C   VAL A  11       7.641  18.266 -19.699  1.00  0.00    +0.264 C 
ATOM     56  O   VAL A  11       7.624  19.443 -20.054  1.00  0.00    -0.271 OA
ATOM     57  CB  VAL A  11       9.419  17.051 -20.933  1.00  0.00    +0.032 C 
ATOM     58  CG1 VAL A  11       9.920  15.654 -20.575  1.00  0.00    +0.003 C 
ATOM     59  CG2 VAL A  11       9.753  17.309 -22.402  1.00  0.00    +0.003 C 
ATOM     60  N   PHE A  12       7.419  17.888 -18.443  1.00  0.00    -0.196 N 
ATOM     61  CA  PHE A  12       7.586  18.816 -17.329  1.00  0.00    +0.177 C 
ATOM     62  C   PHE A  12       9.060  19.029 -17.022  1.00  0.00    +0.262 C 
ATOM     63  O   PHE A  12       9.764  18.087 -16.661  1.00  0.00    -0.271 OA
ATOM     64  CB  PHE A  12       6.878  18.304 -16.086  1.00  0.00    +0.053 C 
ATOM     65  CG  PHE A  12       5.414  18.633 -16.043  1.00  0.00    -0.046 C 
ATOM     66  CD1 PHE A  12       4.995  19.871 -15.573  1.00  0.00    +0.026 C 
ATOM     67  CE1 PHE A  12       3.639  20.175 -15.533  1.00  0.00    +0.177 C 
ATOM     68  CD2 PHE A  12       4.480  17.699 -16.474  1.00  0.00    -0.032 C 
ATOM     69  CE2 PHE A  12       3.124  18.003 -16.435  1.00  0.00    +0.058 C 
ATOM     70  CZ  PHE A  12       2.703  19.242 -15.963  1.00  0.00    +0.152 C 
ATOM     71  N   ALA A  13       9.526  20.266 -17.164  1.00  0.00    -0.196 N 
ATOM     72  CA  ALA A  13       9.970  21.048 -16.013  1.00  0.00    +0.173 C 
ATOM     73  C   ALA A  13       8.810  21.347 -15.077  1.00  0.00    +0.262 C 
ATOM     74  O   ALA A  13       7.762  21.820 -15.513  1.00  0.00    -0.271 OA
ATOM     75  CB  ALA A  13      10.609  22.352 -16.462  1.00  0.00    +0.033 C 
ATOM     76  N   GLY A  14       8.998  21.071 -13.789  1.00  0.00    -0.194 N 
ATOM     77  CA  GLY A  14       8.898  22.108 -12.767  1.00  0.00    +0.201 C 
ATOM     78  C   GLY A  14       7.451  22.524 -12.558  1.00  0.00    +0.264 C 
ATOM     79  O   GLY A  14       6.550  21.687 -12.585  1.00  0.00    -0.271 OA
ATOM     80  N   SER A  15       7.226  23.818 -12.347  1.00  0.00    -0.194 N 
ATOM     81  CA  SER A  15       5.985  24.284 -11.734  1.00  0.00    +0.205 C 
ATOM     82  C   SER A  15       4.807  24.117 -12.678  1.00  0.00    +0.264 C 
ATOM     83  O   SER A  15       3.679  24.472 -12.337  1.00  0.00    -0.271 OA
ATOM     84  CB  SER A  15       6.105  25.743 -11.324  1.00  0.00    +0.213 C 
ATOM     85  OG  SER A  15       6.318  26.567 -12.458  1.00  0.00    -0.218 OA
ATOM     86  N   SER A  16       5.065  23.578 -13.866  1.00  0.00    -0.194 N 
ATOM     87  CA  SER A  16       4.544  24.165 -15.097  1.00  0.00    +0.205 C 
ATOM     88  C   SER A  16       3.033  24.022 -15.180  1.00  0.00    +0.264 C 
ATOM     89  O   SER A  16       2.360  24.841 -15.806  1.00  0.00    -0.271 OA
ATOM     90  CB  SER A  16       5.181  23.514 -16.313  1.00  0.00    +0.213 C 
ATOM     91  OG  SER A  16       6.182  24.352 -16.864  1.00  0.00    -0.218 OA
ATOM     92  N   ASP A  17       2.495  22.983 -14.547  1.00  0.00    -0.196 N 
ATOM     93  CA  ASP A  17       1.275  22.345 -15.032  1.00  0.00    +0.173 C 
ATOM     94  C   ASP A  17       0.061  22.829 -14.255  1.00  0.00    +0.262 C 
ATOM     95  O   ASP A  17       0.123  22.989 -13.037  1.00  0.00    -0.271 OA
ATOM     96  CB  ASP A  17       1.375  20.833 -14.928  1.00  0.00    +0.033 C 
ATOM     97  CG  ASP A  17       2.512  20.252 -15.754  1.00  0.00    +0.209 C 
ATOM     98  OD1 ASP A  17       2.904  20.867 -16.768  1.00  0.00    -0.218 OA
ATOM     99  OD2 ASP A  17       3.019  19.171 -15.384  1.00  0.00    -0.350 OA
ATOM    100  N   TRP A  18      -1.043  23.061 -14.958  1.00  0.00    -0.196 N 
ATOM    101  CA  TRP A  18      -2.367  22.954 -14.352  1.00  0.00    +0.177 C 
ATOM    102  C   TRP A  18      -3.177  21.853 -15.014  1.00  0.00    +0.262 C 
ATOM    103  O   TRP A  18      -2.909  21.477 -16.153  1.00  0.00    -0.271 OA
ATOM    104  CB  TRP A  18      -3.117  24.272 -14.458  1.00  0.00    +0.055 C 
ATOM    105  CG  TRP A  18      -2.463  25.411 -13.735  1.00  0.00    -0.014 C 
ATOM    106  CD1 TRP A  18      -1.766  26.451 -14.292  1.00  0.00    +0.091 C 
ATOM    107  CD2 TRP A  18      -2.441  25.625 -12.321  1.00  0.00    +0.082 C 
ATOM    108  NE1 TRP A  18      -1.330  27.279 -13.277  1.00  0.00    -0.248 NA
ATOM    109  CE2 TRP A  18      -1.726  26.801 -12.061  1.00  0.00    +0.066 C 
ATOM    110  CE3 TRP A  18      -2.965  24.927 -11.227  1.00  0.00    -0.016 C 
ATOM    111  CZ2 TRP A  18      -1.556  27.239 -10.743  1.00  0.00    +0.015 C 
ATOM    112  CZ3 TRP A  18      -2.767  25.410  -9.928  1.00  0.00    -0.004 C 
ATOM    113  CH2 TRP A  18      -2.102  26.502  -9.684  1.00  0.00    +0.001 C 
ATOM    114  N   ILE A  19      -4.173  21.334 -14.299  1.00  0.00    -0.196 N 
ATOM    115  CA  ILE A  19      -5.090  20.352 -14.872  1.00  0.00    +0.173 C 
ATOM    116  C   ILE A  19      -6.314  21.058 -15.430  1.00  0.00    +0.262 C 
ATOM    117  O   ILE A  19      -6.884  21.932 -14.778  1.00  0.00    -0.271 OA
ATOM    118  CB  ILE A  19      -5.522  19.316 -13.849  1.00  0.00    +0.029 C 
ATOM    119  CG1 ILE A  19      -6.032  19.991 -12.578  1.00  0.00    +0.002 C 
ATOM    120  CG2 ILE A  19      -4.358  18.391 -13.501  1.00  0.00    +0.002 C 
ATOM    121  CD1 ILE A  19      -6.709  19.043 -11.602  1.00  0.00    +0.000 C 
ATOM    122  N   ARG A  20      -6.721  20.680 -16.639  1.00  0.00    -0.196 N 
ATOM    123  CA  ARG A  20      -8.129  20.751 -17.024  1.00  0.00    +0.173 C 
ATOM    124  C   ARG A  20      -8.927  19.634 -16.373  1.00  0.00    +0.262 C 
ATOM    125  O   ARG A  20     -10.018  19.867 -15.854  1.00  0.00    -0.271 OA
ATOM    126  CB  ARG A  20      -8.282  20.673 -18.534  1.00  0.00    +0.033 C 
ATOM    127  CG  ARG A  20      -8.156  19.264 -19.091  1.00  0.00    +0.026 C 
ATOM    128  CD  ARG A  20      -6.889  18.578 -18.610  1.00  0.00    +0.115 C 
ATOM    129  NE  ARG A  20      -6.639  17.336 -19.336  1.00  0.00    -0.205 N 
ATOM    130  CZ  ARG A  20      -7.325  16.930 -20.401  1.00  0.00    +0.242 C 
ATOM    131  NH1 ARG A  20      -6.700  16.623 -21.534  1.00  0.00    -0.111 NA
ATOM    132  NH2 ARG A  20      -8.649  16.829 -20.330  1.00  0.00    -0.182 N 
ATOM    133  N   ARG A  21      -8.387  18.420 -16.400  1.00  0.00    -0.194 N 
ATOM    134  CA  ARG A  21      -9.147  17.258 -16.852  1.00  0.00    +0.198 C 
ATOM    135  C   ARG A  21      -9.432  16.312 -15.699  1.00  0.00    +0.384 C 
ATOM    136  O   ARG A  21     -10.590  16.074 -15.356  1.00  0.00    -0.244 OA
ATOM    137  CB  ARG A  21      -8.400  16.514 -17.948  1.00  0.00    +0.037 C 
ATOM    138  CG  ARG A  21      -9.169  15.338 -18.526  1.00  0.00    +0.049 C 
ATOM    139  CD  ARG A  21      -8.751  15.039 -19.956  1.00  0.00    +0.200 C 
ATOM    140  NE  ARG A  21      -9.568  13.983 -20.547  1.00  0.00    -0.213 NA
ATOM    141  CZ  ARG A  21      -9.090  12.859 -21.074  1.00  0.00    +0.286 C 
ATOM    142  NH1 ARG A  21      -7.818  12.513 -20.894  1.00  0.00    -0.104 N 
ATOM    143  NH2 ARG A  21      -9.891  12.075 -21.789  1.00  0.00    -0.104 N 
ATOM    144  OXT ARG A  21      -8.509  15.769 -15.092  1.00  0.00    -0.244 OA
ATOM    145  H   MET A   1      16.002   1.603 -28.621  1.00  0.00    +0.000 HD
ATOM    146  H   MET A   1      14.535   1.562 -27.833  1.00  0.00    +0.000 HD
ATOM    147  H   LYS A   2      14.955   5.899 -28.241  1.00  0.00    +0.000 HD
ATOM    148  H   LYS A   2      18.387   6.199 -22.852  1.00  0.00    +0.000 HD
ATOM    149  H   GLN A   3      10.940   6.760 -26.916  1.00  0.00    +0.000 HD
ATOM    150  H   GLN A   3       6.896   9.910 -29.166  1.00  0.00    +0.000 HD
ATOM    151  H   GLN A   3       5.495   9.040 -28.733  1.00  0.00    +0.000 HD
ATOM    152  H   ALA A   4      12.750  10.750 -26.709  1.00  0.00    +0.000 HD
ATOM    153  H   VAL A   5      10.396  13.499 -23.996  1.00  0.00    +0.000 HD
ATOM    154  H   GLN A  10       3.950  15.569 -23.910  1.00  0.00    +0.000 HD
ATOM    155  H   GLN A  10       1.405  19.051 -25.398  1.00  0.00    +0.000 HD
ATOM    156  H   GLN A  10       0.269  19.478 -24.201  1.00  0.00    +0.000 HD
ATOM    157  H   PHE A  12       7.136  16.963 -18.261  1.00  0.00    +0.000 HD
ATOM    158  H   ALA A  13       9.574  20.662 -18.064  1.00  0.00    +0.000 HD
ATOM    159  H   GLY A  14       9.209  20.148 -13.519  1.00  0.00    +0.000 HD
ATOM    160  H   SER A  15       7.911  24.476 -12.610  1.00  0.00    +0.000 HD
ATOM    161  H   SER A  15       7.141  26.304 -12.898  1.00  0.00    +0.000 HD
ATOM    162  H   SER A  16       5.619  22.766 -13.915  1.00  0.00    +0.000 HD
ATOM    163  H   SER A  16       6.875  24.507 -16.203  1.00  0.00    +0.000 HD
ATOM    164  H   ASP A  17       2.929  22.637 -13.734  1.00  0.00    +0.000 HD
ATOM    165  H   ASP A  17       3.718  20.456 -17.100  1.00  0.00    +0.000 HD
ATOM    166  H   TRP A  18      -0.966  23.311 -15.907  1.00  0.00    +0.000 HD
ATOM    167  H   ILE A  19      -4.295  21.619 -13.365  1.00  0.00    +0.000 HD
ATOM    168  H   ARG A  20      -6.060  20.346 -17.287  1.00  0.00    +0.000 HD
ATOM    169  H   ARG A  20      -5.910  16.758 -19.015  1.00  0.00    +0.000 HD
ATOM    170  H   ARG A  20      -7.217  16.322 -22.316  1.00  0.00    +0.000 HD
ATOM    171  H   ARG A  20      -9.355  17.506 -20.443  1.00  0.00    +0.000 HD
ATOM    172  H   ARG A  21      -7.453  18.301 -16.109  1.00  0.00    +0.000 HD
ATOM    173  H   ARG A  21     -11.304  16.478 -15.807  1.00  0.00    +0.000 HD
ATOM    174  H   ARG A  21      -7.473  11.679 -21.288  1.00  0.00    +0.000 HD
ATOM    175  H   ARG A  21      -7.220  13.091 -20.366  1.00  0.00    +0.000 HD
ATOM    176  H   ARG A  21      -9.543  11.241 -22.181  1.00  0.00    +0.000 HD
ATOM    177  H   ARG A  21     -10.833  12.328 -21.926  1.00  0.00    +0.000 HD
ATOM      1  C   VAL A   5       8.811  15.156 -24.899  1.00  0.00    +0.309 C 
ATOM      2  O   VAL A   5       9.618  15.788 -24.217  1.00  0.00    -0.227 OA
ATOM      3  N   PHE A   6       8.194  15.681 -25.954  1.00  0.00    -0.156 NA
ATOM      4  CA  PHE A   6       8.006  17.122 -26.088  1.00  0.00    +0.162 C 
ATOM      5  C   PHE A   6       6.934  17.616 -25.131  1.00  0.00    +0.321 C 
ATOM      6  O   PHE A   6       5.765  17.715 -25.501  1.00  0.00    -0.263 OA
ATOM      7  CB  PHE A   6       7.625  17.490 -27.512  1.00  0.00    +0.169 C 
ATOM      8  CG  PHE A   6       6.431  18.391 -27.606  1.00  0.00    +0.007 A 
ATOM      9  CD1 PHE A   6       6.595  19.770 -27.558  1.00  0.00    -0.002 A 
ATOM     10  CE1 PHE A   6       5.488  20.605 -27.645  1.00  0.00    -0.000 A 
ATOM     11  CD2 PHE A   6       5.159  17.846 -27.744  1.00  0.00    -0.002 A 
ATOM     12  CE2 PHE A   6       4.051  18.682 -27.832  1.00  0.00    -0.000 A 
ATOM     13  CZ  PHE A   6       4.215  20.062 -27.783  1.00  0.00    -0.000 A 
ATOM     14  N   ALA A   7       7.328  17.926 -23.900  1.00  0.00    -0.190 N 
ATOM     15  CA  ALA A   7       8.196  19.072 -23.645  1.00  0.00    +0.174 C 
ATOM     16  C   ALA A   7       9.602  18.821 -24.168  1.00  0.00    +0.268 C 
ATOM     17  O   ALA A   7      10.395  19.753 -24.297  1.00  0.00    -0.271 OA
ATOM     18  CB  ALA A   7       8.256  19.383 -22.157  1.00  0.00    +0.033 C 
ATOM     19  N   LEU A   8       9.910  17.563 -24.467  1.00  0.00    -0.164 N 
ATOM     20  CA  LEU A   8       9.698  17.028 -25.809  1.00  0.00    +0.124 C 
ATOM     21  C   LEU A   8       8.255  16.584 -25.992  1.00  0.00    +0.126 C 
ATOM     22  O   LEU A   8       7.641  16.867 -27.019  1.00  0.00    -0.347 OA
ATOM     23  CB  LEU A   8      10.627  15.854 -26.074  1.00  0.00    +0.024 C 
ATOM     24  CG  LEU A   8      11.975  16.195 -26.714  1.00  0.00    +0.002 C 
ATOM     25  CD1 LEU A   8      12.731  14.918 -27.062  1.00  0.00    +0.000 C 
ATOM     26  CD2 LEU A   8      12.935  16.757 -25.671  1.00  0.00    +0.000 C 
ATOM     27  N   LEU A   9       7.715  15.887 -24.996  1.00  0.00    -0.096 NA
ATOM     28  H   ALA A   7       7.029  17.371 -23.144  1.00  0.00    +0.000 HD
ATOM     29  H   LEU A   9       6.815  15.455 -24.791  1.00  0.00    +0.000 HD
ENDROOT
TORSDOF 0
