REMARK  Name = /var/folders/yp/yjbh3p597675h2qddgqr02y00000gn/T/tmp3abwx8lv.pdb
REMARK     285 UNITARY VALUES FOR THE UNIT CELL AUTOMATICALLY SET
REMARK     285 BY MDANALYSIS PDBWRITER BECAUSE UNIT CELL INFORMATION
REMARK     285 WAS MISSING.
REMARK     285 PROTEIN DATA BANK CONVENTIONS REQUIRE THAT
REMARK     285 CRYST1 RECORD IS INCLUDED, BUT THE VALUES ON
REMARK     285 THIS RECORD ARE MEANINGLESS.
REMARK     285 UNITARY VALUES FOR THE UNIT CELL AUTOMATICALLY SET
REMARK     285 BY MDANALYSIS PDBWRITER BECAUSE UNIT CELL INFORMATION
REMARK     285 WAS MISSING.
REMARK     285 PROTEIN DATA BANK CONVENTIONS REQUIRE THAT
REMARK     285 CRYST1 RECORD IS INCLUDED, BUT THE VALUES ON
REMARK     285 THIS RECORD ARE MEANINGLESS.
REMARK                            x       y       z     vdW  Elec       q    Type
REMARK                         _______ _______ _______ _____ _____    ______ ____
ROOT
ATOM      1  N   MET A   1     -41.714 -24.364  31.304  1.00  0.00    -0.250 NA
ATOM      2  CA  MET A   1     -41.256 -23.052  30.856  1.00  0.00    +0.192 C 
ATOM      3  C   MET A   1     -41.872 -21.946  31.697  1.00  0.00    +0.271 C 
ATOM      4  O   MET A   1     -43.022 -22.050  32.121  1.00  0.00    -0.270 OA
ATOM      5  CB  MET A   1     -41.600 -22.828  29.392  1.00  0.00    +0.112 C 
ATOM      6  CG  MET A   1     -40.973 -23.848  28.456  1.00  0.00    +0.069 C 
ATOM      7  SD  MET A   1     -42.002 -24.193  27.008  1.00  0.00    +0.006 S 
ATOM      8  CE  MET A   1     -41.046 -25.487  26.226  1.00  0.00    +0.101 C 
ATOM      9  N   LYS A   2     -41.109 -20.883  31.938  1.00  0.00    -0.195 N 
ATOM     10  CA  LYS A   2     -41.692 -19.579  32.236  1.00  0.00    +0.173 C 
ATOM     11  C   LYS A   2     -42.349 -18.980  31.001  1.00  0.00    +0.261 C 
ATOM     12  O   LYS A   2     -43.384 -18.322  31.102  1.00  0.00    -0.271 OA
ATOM     13  CB  LYS A   2     -40.638 -18.622  32.764  1.00  0.00    +0.031 C 
ATOM     14  CG  LYS A   2     -41.130 -17.192  32.924  1.00  0.00    +0.009 C 
ATOM     15  CD  LYS A   2     -39.981 -16.220  33.129  1.00  0.00    +0.049 C 
ATOM     16  CE  LYS A   2     -40.442 -14.950  33.685  1.00  0.00    +0.096 C 
ATOM     17  NZ  LYS A   2     -40.397 -13.782  33.048  1.00  0.00    -0.151 NA
ATOM     18  N   GLN A   3     -41.749 -19.206  29.837  1.00  0.00    -0.204 N 
ATOM     19  CA  GLN A   3     -42.046 -20.397  29.047  1.00  0.00    +0.116 C 
ATOM     20  C   GLN A   3     -41.282 -21.603  29.568  1.00  0.00    +0.200 C 
ATOM     21  O   GLN A   3     -40.053 -21.602  29.587  1.00  0.00    -0.219 OA
ATOM     22  CB  GLN A   3     -41.708 -20.174  27.582  1.00  0.00    +0.033 C 
ATOM     23  CG  GLN A   3     -42.288 -21.228  26.651  1.00  0.00    +0.090 C 
ATOM     24  CD  GLN A   3     -42.140 -20.861  25.183  1.00  0.00    +0.261 C 
ATOM     25  OE1 GLN A   3     -43.008 -20.191  24.605  1.00  0.00    -0.272 OA
ATOM     26  NE2 GLN A   3     -41.043 -21.295  24.571  1.00  0.00    -0.088 N 
ATOM     27  N   ALA A   4     -42.011 -22.632  29.991  1.00  0.00    -0.195 NA
ATOM     28  CA  ALA A   4     -41.509 -24.001  29.913  1.00  0.00    +0.114 C 
ATOM     29  C   ALA A   4     -41.420 -24.470  28.470  1.00  0.00    +0.205 C 
ATOM     30  O   ALA A   4     -42.335 -24.242  27.680  1.00  0.00    -0.285 OA
ATOM     31  CB  ALA A   4     -42.400 -24.948  30.700  1.00  0.00    +0.091 C 
ATOM     32  N   VAL A   5     -40.317 -25.127  28.123  1.00  0.00    -0.183 NA
ATOM     33  CA  VAL A   5     -39.640 -26.021  29.059  1.00  0.00    +0.153 C 
ATOM     34  C   VAL A   5     -38.441 -25.317  29.668  1.00  0.00    +0.258 C 
ATOM     35  O   VAL A   5     -37.798 -24.497  29.014  1.00  0.00    -0.272 OA
ATOM     36  CB  VAL A   5     -39.186 -27.307  28.387  1.00  0.00    +0.025 C 
ATOM     37  CG1 VAL A   5     -40.317 -27.912  27.557  1.00  0.00    +0.002 C 
ATOM     38  CG2 VAL A   5     -38.011 -27.032  27.451  1.00  0.00    +0.002 C 
ATOM     39  N   PHE A   6     -38.136 -25.635  30.923  1.00  0.00    -0.196 N 
ATOM     40  CA  PHE A   6     -36.775 -26.002  31.306  1.00  0.00    +0.177 C 
ATOM     41  C   PHE A   6     -36.427 -27.389  30.790  1.00  0.00    +0.262 C 
ATOM     42  O   PHE A   6     -36.967 -28.387  31.265  1.00  0.00    -0.271 OA
ATOM     43  CB  PHE A   6     -36.608 -25.965  32.816  1.00  0.00    +0.057 C 
ATOM     44  CG  PHE A   6     -35.536 -25.025  33.284  1.00  0.00    -0.020 A 
ATOM     45  CD1 PHE A   6     -35.700 -23.654  33.133  1.00  0.00    -0.004 A 
ATOM     46  CE1 PHE A   6     -34.707 -22.784  33.568  1.00  0.00    -0.000 A 
ATOM     47  CD2 PHE A   6     -34.378 -25.528  33.868  1.00  0.00    -0.004 A 
ATOM     48  CE2 PHE A   6     -33.385 -24.657  34.302  1.00  0.00    -0.000 A 
ATOM     49  CZ  PHE A   6     -33.549 -23.286  34.152  1.00  0.00    -0.000 A 
ATOM     50  N   ALA A   7     -35.522 -27.452  29.817  1.00  0.00    -0.196 N 
ATOM     51  CA  ALA A   7     -34.438 -28.429  29.851  1.00  0.00    +0.173 C 
ATOM     52  C   ALA A   7     -33.422 -28.081  30.926  1.00  0.00    +0.262 C 
ATOM     53  O   ALA A   7     -32.763 -28.965  31.472  1.00  0.00    -0.271 OA
ATOM     54  CB  ALA A   7     -33.739 -28.508  28.501  1.00  0.00    +0.033 C 
ATOM     55  N   LEU A   8     -33.295 -26.792  31.232  1.00  0.00    -0.196 N 
ATOM     56  CA  LEU A   8     -31.997 -26.217  31.578  1.00  0.00    +0.173 C 
ATOM     57  C   LEU A   8     -31.490 -26.778  32.895  1.00  0.00    +0.262 C 
ATOM     58  O   LEU A   8     -30.302 -27.063  33.036  1.00  0.00    -0.271 OA
ATOM     59  CB  LEU A   8     -32.088 -24.703  31.672  1.00  0.00    +0.031 C 
ATOM     60  CG  LEU A   8     -30.773 -23.939  31.508  1.00  0.00    +0.002 C 
ATOM     61  CD1 LEU A   8     -30.995 -22.450  31.746  1.00  0.00    +0.000 C 
ATOM     62  CD2 LEU A   8     -30.363 -23.882  30.042  1.00  0.00    +0.000 C 
ATOM     63  N   LEU A   9     -32.389 -26.938  33.862  1.00  0.00    -0.196 N 
ATOM     64  CA  LEU A   9     -31.986 -27.188  35.243  1.00  0.00    +0.173 C 
ATOM     65  C   LEU A   9     -31.462 -28.606  35.405  1.00  0.00    +0.262 C 
ATOM     66  O   LEU A   9     -30.650 -28.875  36.288  1.00  0.00    -0.271 OA
ATOM     67  CB  LEU A   9     -33.152 -26.966  36.193  1.00  0.00    +0.031 C 
ATOM     68  CG  LEU A   9     -33.026 -25.774  37.144  1.00  0.00    +0.002 C 
ATOM     69  CD1 LEU A   9     -34.047 -24.701  36.783  1.00  0.00    +0.000 C 
ATOM     70  CD2 LEU A   9     -31.752 -24.989  36.855  1.00  0.00    +0.000 C 
ATOM     71  N   GLN A  10     -31.928 -29.515  34.552  1.00  0.00    -0.196 N 
ATOM     72  CA  GLN A  10     -31.763 -30.944  34.801  1.00  0.00    +0.173 C 
ATOM     73  C   GLN A  10     -30.343 -31.392  34.495  1.00  0.00    +0.262 C 
ATOM     74  O   GLN A  10     -29.874 -32.395  35.034  1.00  0.00    -0.271 OA
ATOM     75  CB  GLN A  10     -32.741 -31.756  33.967  1.00  0.00    +0.041 C 
ATOM     76  CG  GLN A  10     -34.198 -31.529  34.340  1.00  0.00    +0.091 C 
ATOM     77  CD  GLN A  10     -35.161 -32.248  33.410  1.00  0.00    +0.261 C 
ATOM     78  OE1 GLN A  10     -34.881 -33.359  32.936  1.00  0.00    -0.272 OA
ATOM     79  NE2 GLN A  10     -36.305 -31.623  33.142  1.00  0.00    -0.088 N 
ATOM     80  N   VAL A  11     -29.657 -30.651  33.631  1.00  0.00    -0.196 N 
ATOM     81  CA  VAL A  11     -28.535 -31.204  32.878  1.00  0.00    +0.173 C 
ATOM     82  C   VAL A  11     -27.231 -30.888  33.593  1.00  0.00    +0.262 C 
ATOM     83  O   VAL A  11     -26.314 -31.709  33.614  1.00  0.00    -0.271 OA
ATOM     84  CB  VAL A  11     -28.480 -30.660  31.460  1.00  0.00    +0.029 C 
ATOM     85  CG1 VAL A  11     -29.847 -30.767  30.788  1.00  0.00    +0.002 C 
ATOM     86  CG2 VAL A  11     -28.074 -29.188  31.469  1.00  0.00    +0.002 C 
ATOM     87  N   PHE A  12     -27.144 -29.698  34.180  1.00  0.00    -0.196 N 
ATOM     88  CA  PHE A  12     -25.890 -28.951  34.207  1.00  0.00    +0.177 C 
ATOM     89  C   PHE A  12     -25.204 -29.101  35.554  1.00  0.00    +0.262 C 
ATOM     90  O   PHE A  12     -23.997 -29.331  35.618  1.00  0.00    -0.271 OA
ATOM     91  CB  PHE A  12     -26.129 -27.478  33.919  1.00  0.00    +0.057 C 
ATOM     92  CG  PHE A  12     -26.604 -27.201  32.525  1.00  0.00    -0.020 A 
ATOM     93  CD1 PHE A  12     -27.265 -26.012  32.237  1.00  0.00    -0.004 A 
ATOM     94  CE1 PHE A  12     -27.705 -25.756  30.943  1.00  0.00    -0.000 A 
ATOM     95  CD2 PHE A  12     -26.383 -28.134  31.516  1.00  0.00    -0.004 A 
ATOM     96  CE2 PHE A  12     -26.822 -27.878  30.223  1.00  0.00    -0.000 A 
ATOM     97  CZ  PHE A  12     -27.483 -26.688  29.937  1.00  0.00    -0.000 A 
ATOM     98  N   ALA A  13     -25.971 -28.970  36.633  1.00  0.00    -0.196 N 
ATOM     99  CA  ALA A  13     -25.540 -28.179  37.781  1.00  0.00    +0.173 C 
ATOM    100  C   ALA A  13     -24.250 -28.727  38.370  1.00  0.00    +0.262 C 
ATOM    101  O   ALA A  13     -24.234 -29.825  38.926  1.00  0.00    -0.271 OA
ATOM    102  CB  ALA A  13     -26.617 -28.152  38.853  1.00  0.00    +0.033 C 
ATOM    103  N   GLY A  14     -23.166 -27.965  38.248  1.00  0.00    -0.194 N 
ATOM    104  CA  GLY A  14     -22.289 -27.703  39.386  1.00  0.00    +0.201 C 
ATOM    105  C   GLY A  14     -20.924 -27.228  38.916  1.00  0.00    +0.264 C 
ATOM    106  O   GLY A  14     -20.762 -26.834  37.763  1.00  0.00    -0.271 OA
ATOM    107  N   SER A  15     -19.939 -27.265  39.809  1.00  0.00    -0.194 N 
ATOM    108  CA  SER A  15     -18.608 -26.755  39.496  1.00  0.00    +0.205 C 
ATOM    109  C   SER A  15     -17.876 -27.679  38.535  1.00  0.00    +0.264 C 
ATOM    110  O   SER A  15     -17.834 -28.891  38.745  1.00  0.00    -0.271 OA
ATOM    111  CB  SER A  15     -17.785 -26.587  40.763  1.00  0.00    +0.213 C 
ATOM    112  OG  SER A  15     -17.318 -27.842  41.229  1.00  0.00    -0.218 OA
ATOM    113  N   SER A  16     -17.297 -27.108  37.483  1.00  0.00    -0.194 N 
ATOM    114  CA  SER A  16     -15.845 -26.998  37.383  1.00  0.00    +0.205 C 
ATOM    115  C   SER A  16     -15.298 -25.981  38.370  1.00  0.00    +0.264 C 
ATOM    116  O   SER A  16     -15.981 -25.021  38.721  1.00  0.00    -0.271 OA
ATOM    117  CB  SER A  16     -15.434 -26.606  35.971  1.00  0.00    +0.213 C 
ATOM    118  OG  SER A  16     -15.749 -25.249  35.714  1.00  0.00    -0.218 OA
ATOM    119  N   ASP A  17     -14.064 -26.191  38.821  1.00  0.00    -0.196 N 
ATOM    120  CA  ASP A  17     -13.183 -25.080  39.171  1.00  0.00    +0.184 C 
ATOM    121  C   ASP A  17     -12.010 -24.990  38.210  1.00  0.00    +0.262 C 
ATOM    122  O   ASP A  17     -11.441 -26.009  37.821  1.00  0.00    -0.271 OA
ATOM    123  CB  ASP A  17     -12.666 -25.227  40.592  1.00  0.00    +0.145 C 
ATOM    124  CG  ASP A  17     -11.779 -24.070  41.026  1.00  0.00    +0.367 C 
ATOM    125  OD1 ASP A  17     -11.324 -23.293  40.159  1.00  0.00    -0.246 OA
ATOM    126  OD2 ASP A  17     -11.537 -23.936  42.245  1.00  0.00    -0.246 OA
ATOM    127  N   TRP A  18     -11.645 -23.770  37.827  1.00  0.00    -0.196 N 
ATOM    128  CA  TRP A  18     -10.247 -23.444  37.555  1.00  0.00    +0.177 C 
ATOM    129  C   TRP A  18      -9.773 -22.309  38.447  1.00  0.00    +0.262 C 
ATOM    130  O   TRP A  18     -10.568 -21.469  38.866  1.00  0.00    -0.271 OA
ATOM    131  CB  TRP A  18     -10.056 -23.060  36.098  1.00  0.00    +0.055 C 
ATOM    132  CG  TRP A  18     -10.579 -24.072  35.122  1.00  0.00    -0.016 C 
ATOM    133  CD1 TRP A  18     -11.743 -24.000  34.404  1.00  0.00    +0.148 C 
ATOM    134  CD2 TRP A  18      -9.960 -25.309  34.760  1.00  0.00    +0.011 A 
ATOM    135  NE1 TRP A  18     -11.848 -25.136  33.627  1.00  0.00    -0.266 NA
ATOM    136  CE2 TRP A  18     -10.774 -25.955  33.822  1.00  0.00    +0.076 A 
ATOM    137  CE3 TRP A  18      -8.774 -25.947  35.141  1.00  0.00    +0.001 A 
ATOM    138  CZ2 TRP A  18     -10.391 -27.196  33.301  1.00  0.00    +0.019 A 
ATOM    139  CZ3 TRP A  18      -8.438 -27.190  34.589  1.00  0.00    +0.000 A 
ATOM    140  CH2 TRP A  18      -9.194 -27.792  33.717  1.00  0.00    +0.002 A 
ATOM    141  N   ILE A  19      -8.476 -22.283  38.740  1.00  0.00    -0.196 N 
ATOM    142  CA  ILE A  19      -7.552 -21.407  38.025  1.00  0.00    +0.173 C 
ATOM    143  C   ILE A  19      -6.574 -22.244  37.217  1.00  0.00    +0.262 C 
ATOM    144  O   ILE A  19      -5.614 -22.785  37.764  1.00  0.00    -0.271 OA
ATOM    145  CB  ILE A  19      -6.782 -20.501  38.972  1.00  0.00    +0.029 C 
ATOM    146  CG1 ILE A  19      -7.738 -19.710  39.861  1.00  0.00    +0.002 C 
ATOM    147  CG2 ILE A  19      -5.904 -19.531  38.182  1.00  0.00    +0.002 C 
ATOM    148  CD1 ILE A  19      -7.074 -18.579  40.629  1.00  0.00    +0.000 C 
ATOM    149  N   ARG A  20      -6.816 -22.352  35.913  1.00  0.00    -0.196 N 
ATOM    150  CA  ARG A  20      -5.733 -22.534  34.951  1.00  0.00    +0.173 C 
ATOM    151  C   ARG A  20      -5.059 -21.209  34.634  1.00  0.00    +0.262 C 
ATOM    152  O   ARG A  20      -3.840 -21.149  34.476  1.00  0.00    -0.271 OA
ATOM    153  CB  ARG A  20      -6.249 -23.162  33.667  1.00  0.00    +0.033 C 
ATOM    154  CG  ARG A  20      -5.155 -23.506  32.669  1.00  0.00    +0.029 C 
ATOM    155  CD  ARG A  20      -5.727 -24.054  31.372  1.00  0.00    +0.129 C 
ATOM    156  NE  ARG A  20      -6.031 -25.479  31.477  1.00  0.00    -0.234 NA
ATOM    157  CZ  ARG A  20      -6.953 -26.111  30.758  1.00  0.00    +0.284 C 
ATOM    158  NH1 ARG A  20      -7.684 -25.454  29.862  1.00  0.00    -0.104 N 
ATOM    159  NH2 ARG A  20      -7.146 -27.415  30.937  1.00  0.00    -0.104 N 
ATOM    160  N   ARG A  21      -5.851 -20.144  34.540  1.00  0.00    -0.194 N 
ATOM    161  CA  ARG A  21      -5.804 -19.263  33.377  1.00  0.00    +0.198 C 
ATOM    162  C   ARG A  21      -4.675 -18.254  33.504  1.00  0.00    +0.384 C 
ATOM    163  O   ARG A  21      -4.232 -17.683  32.510  1.00  0.00    -0.244 OA
ATOM    164  CB  ARG A  21      -7.124 -18.528  33.202  1.00  0.00    +0.035 C 
ATOM    165  CG  ARG A  21      -8.186 -19.337  32.474  1.00  0.00    +0.029 C 
ATOM    166  CD  ARG A  21      -9.537 -19.243  33.162  1.00  0.00    +0.129 C 
ATOM    167  NE  ARG A  21     -10.178 -17.955  32.917  1.00  0.00    -0.234 NA
ATOM    168  CZ  ARG A  21     -11.202 -17.471  33.616  1.00  0.00    +0.284 C 
ATOM    169  NH1 ARG A  21     -11.616 -18.082  34.722  1.00  0.00    -0.104 N 
ATOM    170  NH2 ARG A  21     -11.815 -16.366  33.203  1.00  0.00    -0.104 N 
ATOM    171  OXT ARG A  21      -4.189 -17.995  34.604  1.00  0.00    -0.244 OA
ATOM    172  H   LYS A   2     -40.129 -20.979  31.915  1.00  0.00    +0.000 HD
ATOM    173  H   LYS A   2     -40.031 -13.733  32.135  1.00  0.00    +0.000 HD
ATOM    174  H   GLN A   3     -41.090 -18.557  29.500  1.00  0.00    +0.000 HD
ATOM    175  H   GLN A   3     -39.741 -22.190  30.293  1.00  0.00    +0.000 HD
ATOM    176  H   GLN A   3     -40.379 -21.825  25.068  1.00  0.00    +0.000 HD
ATOM    177  H   GLN A   3     -40.896 -21.088  23.620  1.00  0.00    +0.000 HD
ATOM    178  H   ALA A   4     -42.149 -21.624  30.055  1.00  0.00    +0.000 HD
ATOM    179  H   VAL A   5     -40.561 -25.692  27.309  1.00  0.00    +0.000 HD
ATOM    180  H   PHE A   6     -38.842 -25.623  31.608  1.00  0.00    +0.000 HD
ATOM    181  H   ALA A   7     -35.584 -26.827  29.059  1.00  0.00    +0.000 HD
ATOM    182  H   LEU A   8     -34.093 -26.215  31.226  1.00  0.00    +0.000 HD
ATOM    183  H   LEU A   9     -33.348 -26.886  33.642  1.00  0.00    +0.000 HD
ATOM    184  H   GLN A  10     -32.394 -29.218  33.737  1.00  0.00    +0.000 HD
ATOM    185  H   GLN A  10     -36.967 -32.041  32.546  1.00  0.00    +0.000 HD
ATOM    186  H   GLN A  10     -36.489 -30.742  33.540  1.00  0.00    +0.000 HD
ATOM    187  H   VAL A  11     -29.910 -29.709  33.496  1.00  0.00    +0.000 HD
ATOM    188  H   PHE A  12     -27.943 -29.311  34.606  1.00  0.00    +0.000 HD
ATOM    189  H   ALA A  13     -26.847 -29.416  36.657  1.00  0.00    +0.000 HD
ATOM    190  H   GLY A  14     -22.951 -27.569  37.372  1.00  0.00    +0.000 HD
ATOM    191  H   SER A  15     -20.112 -27.643  40.702  1.00  0.00    +0.000 HD
ATOM    192  H   SER A  15     -16.756 -28.249  40.551  1.00  0.00    +0.000 HD
ATOM    193  H   SER A  16     -17.859 -26.753  36.758  1.00  0.00    +0.000 HD
ATOM    194  H   SER A  16     -16.706 -25.117  35.800  1.00  0.00    +0.000 HD
ATOM    195  H   ASP A  17     -13.739 -27.115  38.922  1.00  0.00    +0.000 HD
ATOM    196  H   ASP A  17     -11.529 -23.428  39.255  1.00  0.00    +0.000 HD
ATOM    197  H   TRP A  18     -12.331 -23.071  37.725  1.00  0.00    +0.000 HD
ATOM    198  H   ILE A  19      -8.131 -22.868  39.453  1.00  0.00    +0.000 HD
ATOM    199  H   ARG A  20      -7.745 -22.309  35.590  1.00  0.00    +0.000 HD
ATOM    200  H   ARG A  20      -8.364 -25.933  29.336  1.00  0.00    +0.000 HD
ATOM    201  H   ARG A  20      -7.546 -24.490  29.726  1.00  0.00    +0.000 HD
ATOM    202  H   ARG A  20      -6.607 -27.906  31.598  1.00  0.00    +0.000 HD
ATOM    203  H   ARG A  20      -7.827 -27.889  30.408  1.00  0.00    +0.000 HD
ATOM    204  H   ARG A  21      -6.482 -19.946  35.270  1.00  0.00    +0.000 HD
ATOM    205  H   ARG A  21      -4.591 -17.869  31.665  1.00  0.00    +0.000 HD
ATOM    206  H   ARG A  21     -11.165 -18.900  35.031  1.00  0.00    +0.000 HD
ATOM    207  H   ARG A  21     -12.375 -17.716  35.232  1.00  0.00    +0.000 HD
ATOM    208  H   ARG A  21     -12.574 -16.003  33.716  1.00  0.00    +0.000 HD
ATOM    209  H   ARG A  21     -11.512 -15.911  32.384  1.00  0.00    +0.000 HD
ENDROOT
TORSDOF 0
