REMARK  Name = /var/folders/yp/yjbh3p597675h2qddgqr02y00000gn/T/tmp999w0c8h.pdb
REMARK     285 UNITARY VALUES FOR THE UNIT CELL AUTOMATICALLY SET
REMARK     285 BY MDANALYSIS PDBWRITER BECAUSE UNIT CELL INFORMATION
REMARK     285 WAS MISSING.
REMARK     285 PROTEIN DATA BANK CONVENTIONS REQUIRE THAT
REMARK     285 CRYST1 RECORD IS INCLUDED, BUT THE VALUES ON
REMARK     285 THIS RECORD ARE MEANINGLESS.
REMARK     285 UNITARY VALUES FOR THE UNIT CELL AUTOMATICALLY SET
REMARK     285 BY MDANALYSIS PDBWRITER BECAUSE UNIT CELL INFORMATION
REMARK     285 WAS MISSING.
REMARK     285 PROTEIN DATA BANK CONVENTIONS REQUIRE THAT
REMARK     285 CRYST1 RECORD IS INCLUDED, BUT THE VALUES ON
REMARK     285 THIS RECORD ARE MEANINGLESS.
REMARK                            x       y       z     vdW  Elec       q    Type
REMARK                         _______ _______ _______ _____ _____    ______ ____
REMARK  Name = /var/folders/yp/yjbh3p597675h2qddgqr02y00000gn/T/tmp999w0c8h.pdb
REMARK     285 UNITARY VALUES FOR THE UNIT CELL AUTOMATICALLY SET
REMARK     285 BY MDANALYSIS PDBWRITER BECAUSE UNIT CELL INFORMATION
REMARK     285 WAS MISSING.
REMARK     285 PROTEIN DATA BANK CONVENTIONS REQUIRE THAT
REMARK     285 CRYST1 RECORD IS INCLUDED, BUT THE VALUES ON
REMARK     285 THIS RECORD ARE MEANINGLESS.
REMARK     285 UNITARY VALUES FOR THE UNIT CELL AUTOMATICALLY SET
REMARK     285 BY MDANALYSIS PDBWRITER BECAUSE UNIT CELL INFORMATION
REMARK     285 WAS MISSING.
REMARK     285 PROTEIN DATA BANK CONVENTIONS REQUIRE THAT
REMARK     285 CRYST1 RECORD IS INCLUDED, BUT THE VALUES ON
REMARK     285 THIS RECORD ARE MEANINGLESS.
REMARK                            x       y       z     vdW  Elec       q    Type
REMARK                         _______ _______ _______ _____ _____    ______ ____
ROOT
ATOM      1  N   MET A   1      11.741 -31.174   3.008  1.00  0.00    -0.123 NA
ATOM      2  CA  MET A   1      13.006 -31.734   2.540  1.00  0.00    +0.170 C 
ATOM      3  C   MET A   1      12.846 -32.362   1.164  1.00  0.00    +0.259 C 
ATOM      4  O   MET A   1      11.796 -32.921   0.850  1.00  0.00    -0.272 OA
ATOM      5  CB  MET A   1      13.530 -32.776   3.514  1.00  0.00    +0.040 C 
ATOM      6  CG  MET A   1      14.776 -33.498   3.024  1.00  0.00    +0.060 C 
ATOM      7  SD  MET A   1      15.380 -34.730   4.204  1.00  0.00    -0.139 S 
ATOM      8  CE  MET A   1      14.567 -34.178   5.701  1.00  0.00    +0.069 C 
ATOM      9  N   LYS A   2      13.888 -32.271   0.343  1.00  0.00    -0.197 N 
ATOM     10  CA  LYS A   2      13.752 -32.519  -1.089  1.00  0.00    +0.173 C 
ATOM     11  C   LYS A   2      13.593 -34.005  -1.373  1.00  0.00    +0.262 C 
ATOM     12  O   LYS A   2      14.170 -34.838  -0.676  1.00  0.00    -0.271 OA
ATOM     13  CB  LYS A   2      14.953 -31.983  -1.849  1.00  0.00    +0.031 C 
ATOM     14  CG  LYS A   2      15.091 -30.470  -1.792  1.00  0.00    +0.009 C 
ATOM     15  CD  LYS A   2      16.217 -29.972  -2.682  1.00  0.00    +0.049 C 
ATOM     16  CE  LYS A   2      15.830 -29.972  -4.091  1.00  0.00    +0.096 C 
ATOM     17  NZ  LYS A   2      16.658 -29.733  -5.105  1.00  0.00    -0.151 NA
ATOM     18  N   GLN A   3      12.814 -34.337  -2.397  1.00  0.00    -0.196 N 
ATOM     19  CA  GLN A   3      13.284 -35.227  -3.455  1.00  0.00    +0.173 C 
ATOM     20  C   GLN A   3      14.228 -34.503  -4.398  1.00  0.00    +0.262 C 
ATOM     21  O   GLN A   3      14.034 -33.324  -4.694  1.00  0.00    -0.271 OA
ATOM     22  CB  GLN A   3      12.115 -35.798  -4.242  1.00  0.00    +0.041 C 
ATOM     23  CG  GLN A   3      11.238 -36.742  -3.438  1.00  0.00    +0.091 C 
ATOM     24  CD  GLN A   3      10.462 -36.031  -2.338  1.00  0.00    +0.261 C 
ATOM     25  OE1 GLN A   3      10.729 -34.862  -2.027  1.00  0.00    -0.272 OA
ATOM     26  NE2 GLN A   3       9.500 -36.730  -1.745  1.00  0.00    -0.088 N 
ATOM     27  N   ALA A   4      15.253 -35.206  -4.872  1.00  0.00    -0.196 N 
ATOM     28  CA  ALA A   4      15.404 -35.460  -6.302  1.00  0.00    +0.173 C 
ATOM     29  C   ALA A   4      14.201 -36.205  -6.856  1.00  0.00    +0.262 C 
ATOM     30  O   ALA A   4      13.665 -37.099  -6.204  1.00  0.00    -0.271 OA
ATOM     31  CB  ALA A   4      16.667 -36.261  -6.576  1.00  0.00    +0.033 C 
ATOM     32  N   VAL A   5      13.775 -35.836  -8.060  1.00  0.00    -0.196 N 
ATOM     33  CA  VAL A   5      13.169 -36.796  -8.978  1.00  0.00    +0.171 C 
ATOM     34  C   VAL A   5      14.034 -36.935 -10.220  1.00  0.00    +0.246 C 
ATOM     35  O   VAL A   5      14.103 -36.021 -11.040  1.00  0.00    -0.273 OA
ATOM     36  CB  VAL A   5      11.763 -36.384  -9.383  1.00  0.00    +0.029 C 
ATOM     37  CG1 VAL A   5      10.960 -35.930  -8.165  1.00  0.00    +0.002 C 
ATOM     38  CG2 VAL A   5      11.813 -35.224 -10.374  1.00  0.00    +0.002 C 
ATOM     39  N   PHE A   6      14.694 -38.081 -10.361  1.00  0.00    -0.273 N 
ATOM     40  CA  PHE A   6      16.111 -38.189 -10.028  1.00  0.00    +0.132 C 
ATOM     41  C   PHE A   6      16.972 -37.986 -11.266  1.00  0.00    +0.258 C 
ATOM     42  O   PHE A   6      16.793 -38.677 -12.270  1.00  0.00    -0.272 OA
ATOM     43  CB  PHE A   6      16.423 -39.540  -9.409  1.00  0.00    +0.029 C 
ATOM     44  CG  PHE A   6      16.500 -39.517  -7.911  1.00  0.00    +0.012 C 
ATOM     45  CD1 PHE A   6      15.367 -39.789  -7.153  1.00  0.00    +0.026 C 
ATOM     46  CE1 PHE A   6      15.439 -39.768  -5.764  1.00  0.00    -0.031 C 
ATOM     47  CD2 PHE A   6      17.704 -39.224  -7.281  1.00  0.00    +0.048 C 
ATOM     48  CE2 PHE A   6      17.775 -39.203  -5.892  1.00  0.00    +0.024 C 
ATOM     49  CZ  PHE A   6      16.643 -39.475  -5.135  1.00  0.00    -0.031 C 
ATOM     50  N   ALA A   7      17.904 -37.041 -11.196  1.00  0.00    -0.196 N 
ATOM     51  CA  ALA A   7      19.312 -37.345 -11.434  1.00  0.00    +0.173 C 
ATOM     52  C   ALA A   7      19.909 -38.117 -10.268  1.00  0.00    +0.261 C 
ATOM     53  O   ALA A   7      20.950 -38.757 -10.412  1.00  0.00    -0.271 OA
ATOM     54  CB  ALA A   7      20.109 -36.068 -11.657  1.00  0.00    +0.033 C 
ATOM     55  N   LEU A   8      19.250 -38.059  -9.114  1.00  0.00    -0.202 N 
ATOM     56  CA  LEU A   8      19.567 -38.965  -8.012  1.00  0.00    +0.139 C 
ATOM     57  C   LEU A   8      18.981 -40.344  -8.258  1.00  0.00    +0.205 C 
ATOM     58  O   LEU A   8      19.447 -41.331  -7.690  1.00  0.00    -0.206 OA
ATOM     59  CB  LEU A   8      19.039 -38.415  -6.697  1.00  0.00    +0.030 C 
ATOM     60  CG  LEU A   8      19.585 -39.071  -5.427  1.00  0.00    +0.002 C 
ATOM     61  CD1 LEU A   8      18.758 -40.299  -5.070  1.00  0.00    +0.004 C 
ATOM     62  CD2 LEU A   8      19.271 -38.216  -4.204  1.00  0.00    +0.000 C 
ATOM     63  N   LEU A   9      17.958 -40.415  -9.106  1.00  0.00    -0.183 NA
ATOM     64  CA  LEU A   9      16.806 -41.270  -8.838  1.00  0.00    +0.153 C 
ATOM     65  C   LEU A   9      16.837 -42.511  -9.717  1.00  0.00    +0.258 C 
ATOM     66  O   LEU A   9      16.964 -42.410 -10.936  1.00  0.00    -0.272 OA
ATOM     67  CB  LEU A   9      15.508 -40.516  -9.073  1.00  0.00    +0.028 C 
ATOM     68  CG  LEU A   9      15.557 -39.407 -10.126  1.00  0.00    +0.044 C 
ATOM     69  CD1 LEU A   9      14.295 -38.554 -10.054  1.00  0.00    +0.096 C 
ATOM     70  CD2 LEU A   9      15.365 -39.987 -11.524  1.00  0.00    +0.004 C 
ATOM     71  N   GLN A  10      16.721 -43.683  -9.099  1.00  0.00    -0.197 N 
ATOM     72  CA  GLN A  10      15.554 -44.536  -9.299  1.00  0.00    +0.173 C 
ATOM     73  C   GLN A  10      14.378 -44.060  -8.462  1.00  0.00    +0.262 C 
ATOM     74  O   GLN A  10      14.521 -43.810  -7.267  1.00  0.00    -0.271 OA
ATOM     75  CB  GLN A  10      15.873 -45.981  -8.950  1.00  0.00    +0.041 C 
ATOM     76  CG  GLN A  10      14.750 -46.952  -9.277  1.00  0.00    +0.091 C 
ATOM     77  CD  GLN A  10      13.548 -46.791  -8.361  1.00  0.00    +0.261 C 
ATOM     78  OE1 GLN A  10      13.695 -46.576  -7.149  1.00  0.00    -0.272 OA
ATOM     79  NE2 GLN A  10      12.349 -46.894  -8.930  1.00  0.00    -0.088 N 
ATOM     80  N   VAL A  11      13.213 -43.934  -9.090  1.00  0.00    -0.196 N 
ATOM     81  CA  VAL A  11      12.093 -43.225  -8.477  1.00  0.00    +0.174 C 
ATOM     82  C   VAL A  11      11.078 -44.227  -7.950  1.00  0.00    +0.262 C 
ATOM     83  O   VAL A  11      11.018 -45.362  -8.420  1.00  0.00    -0.271 OA
ATOM     84  CB  VAL A  11      11.412 -42.283  -9.457  1.00  0.00    +0.049 C 
ATOM     85  CG1 VAL A  11      12.378 -41.194  -9.918  1.00  0.00    +0.004 C 
ATOM     86  CG2 VAL A  11      10.941 -43.048 -10.691  1.00  0.00    +0.091 C 
ATOM     87  N   PHE A  12      10.279 -43.807  -6.973  1.00  0.00    -0.196 N 
ATOM     88  CA  PHE A  12       9.323 -44.707  -6.333  1.00  0.00    +0.177 C 
ATOM     89  C   PHE A  12       7.911 -44.429  -6.824  1.00  0.00    +0.262 C 
ATOM     90  O   PHE A  12       7.248 -45.319  -7.354  1.00  0.00    -0.271 OA
ATOM     91  CB  PHE A  12       9.371 -44.563  -4.821  1.00  0.00    +0.057 C 
ATOM     92  CG  PHE A  12      10.705 -44.900  -4.223  1.00  0.00    -0.020 A 
ATOM     93  CD1 PHE A  12      11.179 -46.206  -4.271  1.00  0.00    -0.004 A 
ATOM     94  CE1 PHE A  12      12.415 -46.519  -3.717  1.00  0.00    -0.000 A 
ATOM     95  CD2 PHE A  12      11.468 -43.906  -3.619  1.00  0.00    -0.004 A 
ATOM     96  CE2 PHE A  12      12.703 -44.218  -3.065  1.00  0.00    -0.000 A 
ATOM     97  CZ  PHE A  12      13.177 -45.525  -3.113  1.00  0.00    -0.000 A 
ATOM     98  N   ALA A  13       7.450 -43.194  -6.647  1.00  0.00    -0.196 N 
ATOM     99  CA  ALA A  13       6.518 -42.588  -7.593  1.00  0.00    +0.173 C 
ATOM    100  C   ALA A  13       7.181 -42.355  -8.941  1.00  0.00    +0.261 C 
ATOM    101  O   ALA A  13       8.385 -42.111  -9.011  1.00  0.00    -0.271 OA
ATOM    102  CB  ALA A  13       5.984 -41.270  -7.057  1.00  0.00    +0.033 C 
ATOM    103  N   GLY A  14       6.397 -42.431 -10.012  1.00  0.00    -0.201 N 
ATOM    104  CA  GLY A  14       6.745 -41.756 -11.260  1.00  0.00    +0.121 C 
ATOM    105  C   GLY A  14       7.203 -42.758 -12.308  1.00  0.00    +0.108 C 
ATOM    106  O   GLY A  14       6.748 -43.900 -12.318  1.00  0.00    -0.245 OA
ATOM    107  N   SER A  15       8.103 -42.331 -13.189  1.00  0.00    +0.434 N 
ATOM    108  CA  SER A  15       8.287 -43.001 -14.472  1.00  0.00    +0.023 C 
ATOM    109  C   SER A  15       8.938 -44.363 -14.296  1.00  0.00    +0.222 C 
ATOM    110  O   SER A  15       9.655 -44.591 -13.323  1.00  0.00    -0.276 OA
ATOM    111  OG  SER A  15      10.344 -42.816 -15.730  1.00  0.00    -0.171 OA
ATOM    112  N   SER A  16       8.690 -45.269 -15.237  1.00  0.00    -0.197 N 
ATOM    113  CA  SER A  16       9.661 -46.309 -15.567  1.00  0.00    +0.205 C 
ATOM    114  C   SER A  16      10.916 -45.715 -16.187  1.00  0.00    +0.264 C 
ATOM    115  O   SER A  16      12.028 -46.018 -15.757  1.00  0.00    -0.271 OA
ATOM    116  CB  SER A  16       9.056 -47.326 -16.521  1.00  0.00    +0.213 C 
ATOM    117  OG  SER A  16       8.501 -46.683 -17.654  1.00  0.00    -0.218 OA
ATOM    118  N   ASP A  17      10.739 -44.870 -17.198  1.00  0.00    -0.198 N 
ATOM    119  CA  ASP A  17      11.647 -43.747 -17.418  1.00  0.00    +0.180 C 
ATOM    120  C   ASP A  17      11.125 -42.485 -16.751  1.00  0.00    +0.331 C 
ATOM    121  O   ASP A  17       9.918 -42.314 -16.594  1.00  0.00    -0.171 OA
ATOM    122  CB  ASP A  17      11.842 -43.493 -18.904  1.00  0.00    +0.142 C 
ATOM    123  CG  ASP A  17      12.450 -44.678 -19.637  1.00  0.00    +0.367 C 
ATOM    124  OD1 ASP A  17      13.238 -45.432 -19.027  1.00  0.00    -0.246 OA
ATOM    125  OD2 ASP A  17      12.135 -44.858 -20.832  1.00  0.00    -0.246 OA
ATOM    126  N   TRP A  18      12.036 -41.599 -16.360  1.00  0.00    -0.156 NA
ATOM    127  CA  TRP A  18      11.670 -40.219 -16.053  1.00  0.00    +0.160 C 
ATOM    128  C   TRP A  18      12.518 -39.243 -16.853  1.00  0.00    +0.258 C 
ATOM    129  O   TRP A  18      13.666 -39.536 -17.183  1.00  0.00    -0.272 OA
ATOM    130  CB  TRP A  18      11.833 -39.934 -14.569  1.00  0.00    +0.054 C 
ATOM    131  CG  TRP A  18      11.147 -40.925 -13.676  1.00  0.00    -0.010 C 
ATOM    132  CD1 TRP A  18      11.668 -42.092 -13.183  1.00  0.00    +0.055 C 
ATOM    133  CD2 TRP A  18       9.812 -40.838 -13.170  1.00  0.00    -0.027 C 
ATOM    134  NE1 TRP A  18      10.708 -42.706 -12.405  1.00  0.00    -0.324 N 
ATOM    135  CE2 TRP A  18       9.563 -41.964 -12.377  1.00  0.00    +0.035 C 
ATOM    136  CE3 TRP A  18       8.781 -39.900 -13.310  1.00  0.00    -0.006 C 
ATOM    137  CZ2 TRP A  18       8.318 -42.123 -11.759  1.00  0.00    +0.002 C 
ATOM    138  CZ3 TRP A  18       7.554 -40.107 -12.669  1.00  0.00    -0.009 C 
ATOM    139  CH2 TRP A  18       7.321 -41.154 -11.932  1.00  0.00    -0.041 C 
ATOM    140  N   ILE A  19      11.954 -38.079 -17.164  1.00  0.00    -0.197 N 
ATOM    141  CA  ILE A  19      12.033 -37.535 -18.517  1.00  0.00    +0.173 C 
ATOM    142  C   ILE A  19      12.982 -36.347 -18.536  1.00  0.00    +0.262 C 
ATOM    143  O   ILE A  19      12.801 -35.390 -17.786  1.00  0.00    -0.271 OA
ATOM    144  CB  ILE A  19      10.671 -37.103 -19.035  1.00  0.00    +0.029 C 
ATOM    145  CG1 ILE A  19       9.903 -36.335 -17.962  1.00  0.00    +0.002 C 
ATOM    146  CG2 ILE A  19       9.857 -38.320 -19.471  1.00  0.00    +0.002 C 
ATOM    147  CD1 ILE A  19       8.593 -35.738 -18.449  1.00  0.00    +0.000 C 
ATOM    148  N   ARG A  20      13.997 -36.409 -19.392  1.00  0.00    -0.196 N 
ATOM    149  CA  ARG A  20      15.336 -35.962 -19.019  1.00  0.00    +0.173 C 
ATOM    150  C   ARG A  20      15.415 -34.444 -18.989  1.00  0.00    +0.262 C 
ATOM    151  O   ARG A  20      16.433 -33.864 -19.362  1.00  0.00    -0.271 OA
ATOM    152  CB  ARG A  20      16.378 -36.505 -19.984  1.00  0.00    +0.033 C 
ATOM    153  CG  ARG A  20      15.979 -36.392 -21.446  1.00  0.00    +0.029 C 
ATOM    154  CD  ARG A  20      17.078 -36.886 -22.371  1.00  0.00    +0.129 C 
ATOM    155  NE  ARG A  20      18.175 -37.499 -21.626  1.00  0.00    -0.234 NA
ATOM    156  CZ  ARG A  20      19.220 -38.108 -22.178  1.00  0.00    +0.284 C 
ATOM    157  NH1 ARG A  20      19.372 -38.130 -23.499  1.00  0.00    -0.104 N 
ATOM    158  NH2 ARG A  20      20.121 -38.702 -21.401  1.00  0.00    -0.104 N 
ATOM    159  N   ARG A  21      14.340 -33.801 -18.542  1.00  0.00    -0.194 N 
ATOM    160  CA  ARG A  21      14.057 -32.426 -18.944  1.00  0.00    +0.198 C 
ATOM    161  C   ARG A  21      14.757 -31.435 -18.029  1.00  0.00    +0.384 C 
ATOM    162  O   ARG A  21      14.950 -30.278 -18.393  1.00  0.00    -0.244 OA
ATOM    163  CB  ARG A  21      12.560 -32.157 -18.934  1.00  0.00    +0.035 C 
ATOM    164  CG  ARG A  21      11.789 -32.928 -19.993  1.00  0.00    +0.029 C 
ATOM    165  CD  ARG A  21      10.386 -32.375 -20.185  1.00  0.00    +0.129 C 
ATOM    166  NE  ARG A  21       9.698 -33.025 -21.296  1.00  0.00    -0.234 NA
ATOM    167  CZ  ARG A  21       8.377 -33.140 -21.408  1.00  0.00    +0.284 C 
ATOM    168  NH1 ARG A  21       7.586 -32.901 -20.366  1.00  0.00    -0.104 N 
ATOM    169  NH2 ARG A  21       7.845 -33.497 -22.572  1.00  0.00    -0.104 N 
ATOM    170  OXT ARG A  21      15.139 -31.780 -16.911  1.00  0.00    -0.244 OA
ATOM    171  H   MET A   1      11.873 -30.761   3.931  1.00  0.00    +0.000 HD
ATOM    172  H   MET A   1      11.041 -31.915   3.064  1.00  0.00    +0.000 HD
ATOM    173  H   LYS A   2      14.769 -32.030   0.709  1.00  0.00    +0.000 HD
ATOM    174  H   LYS A   2      17.607 -29.538  -4.931  1.00  0.00    +0.000 HD
ATOM    175  H   GLN A   3      11.900 -33.975  -2.443  1.00  0.00    +0.000 HD
ATOM    176  H   GLN A   3       8.966 -36.321  -1.026  1.00  0.00    +0.000 HD
ATOM    177  H   GLN A   3       9.321 -37.657  -2.023  1.00  0.00    +0.000 HD
ATOM    178  H   ALA A   4      15.923 -35.563  -4.245  1.00  0.00    +0.000 HD
ATOM    179  H   VAL A   5      13.870 -34.896  -8.338  1.00  0.00    +0.000 HD
ATOM    180  H   ALA A   7      17.639 -36.118 -10.980  1.00  0.00    +0.000 HD
ATOM    181  H   LEU A   8      18.535 -37.392  -9.000  1.00  0.00    +0.000 HD
ATOM    182  H   LEU A   8      20.183 -41.058  -7.119  1.00  0.00    +0.000 HD
ATOM    183  H   LEU A   9      18.344 -40.723  -9.998  1.00  0.00    +0.000 HD
ATOM    184  H   GLN A  10      17.438 -43.981  -8.494  1.00  0.00    +0.000 HD
ATOM    185  H   GLN A  10      11.535 -46.799  -8.385  1.00  0.00    +0.000 HD
ATOM    186  H   GLN A  10      12.277 -47.066  -9.897  1.00  0.00    +0.000 HD
ATOM    187  H   VAL A  11      13.103 -44.326  -9.986  1.00  0.00    +0.000 HD
ATOM    188  H   PHE A  12      10.333 -42.870  -6.674  1.00  0.00    +0.000 HD
ATOM    189  H   ALA A  13       7.744 -42.677  -5.862  1.00  0.00    +0.000 HD
ATOM    190  H   GLY A  14       5.564 -42.954  -9.963  1.00  0.00    +0.000 HD
ATOM    191  H   GLY A  14       6.110 -44.000 -11.595  1.00  0.00    +0.000 HD
ATOM    192  H   SER A  16       7.834 -45.239 -15.722  1.00  0.00    +0.000 HD
ATOM    193  H   SER A  16       7.800 -46.076 -17.370  1.00  0.00    +0.000 HD
ATOM    194  H   ASP A  17       9.980 -45.004 -17.810  1.00  0.00    +0.000 HD
ATOM    195  H   ASP A  17      11.540 -44.270 -21.254  1.00  0.00    +0.000 HD
ATOM    196  H   TRP A  18      12.463 -41.979 -15.515  1.00  0.00    +0.000 HD
ATOM    197  H   ILE A  19      11.473 -37.574 -16.468  1.00  0.00    +0.000 HD
ATOM    198  H   ARG A  20      13.843 -36.764 -20.298  1.00  0.00    +0.000 HD
ATOM    199  H   ARG A  20      20.150 -38.585 -23.897  1.00  0.00    +0.000 HD
ATOM    200  H   ARG A  20      18.708 -37.693 -24.078  1.00  0.00    +0.000 HD
ATOM    201  H   ARG A  20      20.013 -38.689 -20.423  1.00  0.00    +0.000 HD
ATOM    202  H   ARG A  20      20.896 -39.155 -21.805  1.00  0.00    +0.000 HD
ATOM    203  H   ARG A  21      13.723 -34.261 -17.928  1.00  0.00    +0.000 HD
ATOM    204  H   ARG A  21      14.665 -30.000 -19.241  1.00  0.00    +0.000 HD
ATOM    205  H   ARG A  21       7.977 -32.636 -19.502  1.00  0.00    +0.000 HD
ATOM    206  H   ARG A  21       6.610 -32.989 -20.458  1.00  0.00    +0.000 HD
ATOM    207  H   ARG A  21       8.428 -33.675 -23.346  1.00  0.00    +0.000 HD
ATOM    208  H   ARG A  21       6.868 -33.583 -22.661  1.00  0.00    +0.000 HD
ATOM      1  CB  SER A  15       9.136 -42.151 -15.405  1.00  0.00    +0.000 C 
ENDROOT
TORSDOF 0
