REMARK  Name = /var/folders/yp/yjbh3p597675h2qddgqr02y00000gn/T/tmpovwx6et_.pdb
REMARK   1 CREATED WITH OPENMM 8.6.1, 2026-10-07
REMARK                            x       y       z     vdW  Elec       q    Type
REMARK                         _______ _______ _______ _____ _____    ______ ____
ROOT
ATOM      1  N   MET A   1      20.268  -9.851 -17.615  1.00  0.00    -0.123 NA
ATOM      2  CA  MET A   1      21.045  -9.724 -16.358  1.00  0.00    +0.170 C 
ATOM      3  C   MET A   1      21.975  -8.521 -16.379  1.00  0.00    +0.259 C 
ATOM      4  O   MET A   1      22.345  -8.020 -15.320  1.00  0.00    -0.272 OA
ATOM      5  CB  MET A   1      21.847 -11.002 -16.066  1.00  0.00    +0.040 C 
ATOM      6  CG  MET A   1      22.397 -11.055 -14.636  1.00  0.00    +0.060 C 
ATOM      7  SD  MET A   1      21.103 -11.285 -13.389  1.00  0.00    -0.139 S 
ATOM      8  CE  MET A   1      21.961 -10.660 -11.924  1.00  0.00    +0.069 C 
ATOM      9  N   LYS A   2      22.405  -8.062 -17.561  1.00  0.00    -0.197 N 
ATOM     10  CA  LYS A   2      23.330  -6.937 -17.692  1.00  0.00    +0.173 C 
ATOM     11  C   LYS A   2      22.661  -5.617 -17.324  1.00  0.00    +0.262 C 
ATOM     12  O   LYS A   2      21.624  -5.265 -17.886  1.00  0.00    -0.271 OA
ATOM     13  CB  LYS A   2      23.847  -6.868 -19.131  1.00  0.00    +0.031 C 
ATOM     14  CG  LYS A   2      24.897  -5.752 -19.288  1.00  0.00    +0.004 C 
ATOM     15  CD  LYS A   2      26.151  -6.199 -20.030  1.00  0.00    +0.021 C 
ATOM     16  CE  LYS A   2      26.725  -7.540 -19.558  1.00  0.00    +0.109 C 
ATOM     17  NZ  LYS A   2      26.938  -7.672 -18.101  1.00  0.00    -0.131 NA
ATOM     18  N   GLN A   3      23.288  -4.870 -16.417  1.00  0.00    -0.196 N 
ATOM     19  CA  GLN A   3      22.816  -3.539 -16.034  1.00  0.00    +0.173 C 
ATOM     20  C   GLN A   3      23.293  -2.536 -17.066  1.00  0.00    +0.262 C 
ATOM     21  O   GLN A   3      24.342  -2.728 -17.686  1.00  0.00    -0.271 OA
ATOM     22  CB  GLN A   3      23.291  -3.116 -14.636  1.00  0.00    +0.041 C 
ATOM     23  CG  GLN A   3      22.261  -3.412 -13.536  1.00  0.00    +0.091 C 
ATOM     24  CD  GLN A   3      22.115  -4.884 -13.168  1.00  0.00    +0.261 C 
ATOM     25  OE1 GLN A   3      21.434  -5.249 -12.222  1.00  0.00    -0.272 OA
ATOM     26  NE2 GLN A   3      22.756  -5.793 -13.852  1.00  0.00    -0.088 N 
ATOM     27  N   ALA A   4      22.472  -1.515 -17.271  1.00  0.00    -0.196 N 
ATOM     28  CA  ALA A   4      22.118  -1.145 -18.628  1.00  0.00    +0.173 C 
ATOM     29  C   ALA A   4      23.318  -0.809 -19.509  1.00  0.00    +0.262 C 
ATOM     30  O   ALA A   4      24.302  -0.214 -19.064  1.00  0.00    -0.271 OA
ATOM     31  CB  ALA A   4      21.122  -0.002 -18.591  1.00  0.00    +0.033 C 
ATOM     32  N   VAL A   5      23.192  -1.143 -20.788  1.00  0.00    -0.196 N 
ATOM     33  CA  VAL A   5      23.904  -0.432 -21.851  1.00  0.00    +0.173 C 
ATOM     34  C   VAL A   5      23.162   0.851 -22.186  1.00  0.00    +0.262 C 
ATOM     35  O   VAL A   5      21.935   0.928 -22.065  1.00  0.00    -0.271 OA
ATOM     36  CB  VAL A   5      24.071  -1.299 -23.105  1.00  0.00    +0.029 C 
ATOM     37  CG1 VAL A   5      22.776  -2.022 -23.491  1.00  0.00    +0.002 C 
ATOM     38  CG2 VAL A   5      24.532  -0.483 -24.321  1.00  0.00    +0.002 C 
ATOM     39  N   PHE A   6      23.913   1.861 -22.633  1.00  0.00    -0.196 N 
ATOM     40  CA  PHE A   6      23.331   3.123 -23.008  1.00  0.00    +0.177 C 
ATOM     41  C   PHE A   6      22.424   2.998 -24.258  1.00  0.00    +0.262 C 
ATOM     42  O   PHE A   6      22.936   2.775 -25.352  1.00  0.00    -0.271 OA
ATOM     43  CB  PHE A   6      24.382   4.217 -23.180  1.00  0.00    +0.057 C 
ATOM     44  CG  PHE A   6      23.813   5.587 -23.502  1.00  0.00    -0.020 A 
ATOM     45  CD1 PHE A   6      23.352   6.418 -22.472  1.00  0.00    -0.004 A 
ATOM     46  CE1 PHE A   6      22.810   7.684 -22.750  1.00  0.00    -0.000 A 
ATOM     47  CD2 PHE A   6      23.773   6.052 -24.823  1.00  0.00    -0.004 A 
ATOM     48  CE2 PHE A   6      23.241   7.321 -25.109  1.00  0.00    -0.000 A 
ATOM     49  CZ  PHE A   6      22.741   8.129 -24.077  1.00  0.00    -0.000 A 
ATOM     50  N   ALA A   7      21.097   3.115 -24.153  1.00  0.00    -0.196 N 
ATOM     51  CA  ALA A   7      20.429   4.422 -24.267  1.00  0.00    +0.173 C 
ATOM     52  C   ALA A   7      20.717   5.368 -23.115  1.00  0.00    +0.262 C 
ATOM     53  O   ALA A   7      20.445   6.558 -23.188  1.00  0.00    -0.271 OA
ATOM     54  CB  ALA A   7      18.912   4.193 -24.283  1.00  0.00    +0.033 C 
ATOM     55  N   LEU A   8      21.184   4.763 -22.033  1.00  0.00    -0.196 N 
ATOM     56  CA  LEU A   8      20.491   4.618 -20.792  1.00  0.00    +0.173 C 
ATOM     57  C   LEU A   8      19.997   5.933 -20.254  1.00  0.00    +0.262 C 
ATOM     58  O   LEU A   8      18.824   6.038 -19.917  1.00  0.00    -0.271 OA
ATOM     59  CB  LEU A   8      21.398   3.858 -19.804  1.00  0.00    +0.031 C 
ATOM     60  CG  LEU A   8      20.727   3.552 -18.452  1.00  0.00    +0.002 C 
ATOM     61  CD1 LEU A   8      21.724   2.911 -17.490  1.00  0.00    +0.000 C 
ATOM     62  CD2 LEU A   8      19.545   2.608 -18.681  1.00  0.00    +0.000 C 
ATOM     63  N   LEU A   9      20.908   6.895 -20.133  1.00  0.00    -0.196 N 
ATOM     64  CA  LEU A   9      20.889   7.816 -19.000  1.00  0.00    +0.173 C 
ATOM     65  C   LEU A   9      19.772   8.847 -19.102  1.00  0.00    +0.262 C 
ATOM     66  O   LEU A   9      19.359   9.405 -18.086  1.00  0.00    -0.271 OA
ATOM     67  CB  LEU A   9      22.250   8.536 -18.904  1.00  0.00    +0.031 C 
ATOM     68  CG  LEU A   9      23.362   7.788 -18.151  1.00  0.00    +0.002 C 
ATOM     69  CD1 LEU A   9      24.715   8.424 -18.443  1.00  0.00    +0.000 C 
ATOM     70  CD2 LEU A   9      23.546   6.341 -18.549  1.00  0.00    +0.000 C 
ATOM     71  N   GLN A  10      19.349   9.150 -20.324  1.00  0.00    -0.196 N 
ATOM     72  CA  GLN A  10      18.684  10.408 -20.623  1.00  0.00    +0.173 C 
ATOM     73  C   GLN A  10      17.215  10.409 -20.222  1.00  0.00    +0.262 C 
ATOM     74  O   GLN A  10      16.602   9.362 -19.996  1.00  0.00    -0.271 OA
ATOM     75  CB  GLN A  10      18.815  10.711 -22.118  1.00  0.00    +0.041 C 
ATOM     76  CG  GLN A  10      20.219  11.194 -22.502  1.00  0.00    +0.091 C 
ATOM     77  CD  GLN A  10      20.317  11.581 -23.975  1.00  0.00    +0.261 C 
ATOM     78  OE1 GLN A  10      21.211  12.309 -24.386  1.00  0.00    -0.272 OA
ATOM     79  NE2 GLN A  10      19.415  11.129 -24.824  1.00  0.00    -0.088 N 
ATOM     80  N   VAL A  11      16.633  11.606 -20.229  1.00  0.00    -0.196 N 
ATOM     81  CA  VAL A  11      15.220  11.776 -20.560  1.00  0.00    +0.173 C 
ATOM     82  C   VAL A  11      15.117  12.514 -21.887  1.00  0.00    +0.262 C 
ATOM     83  O   VAL A  11      15.745  13.561 -22.071  1.00  0.00    -0.271 OA
ATOM     84  CB  VAL A  11      14.449  12.530 -19.469  1.00  0.00    +0.029 C 
ATOM     85  CG1 VAL A  11      12.942  12.348 -19.671  1.00  0.00    +0.002 C 
ATOM     86  CG2 VAL A  11      14.811  12.023 -18.070  1.00  0.00    +0.002 C 
ATOM     87  N   PHE A  12      14.316  11.988 -22.808  1.00  0.00    -0.196 N 
ATOM     88  CA  PHE A  12      13.882  12.742 -23.982  1.00  0.00    +0.177 C 
ATOM     89  C   PHE A  12      12.647  13.562 -23.628  1.00  0.00    +0.262 C 
ATOM     90  O   PHE A  12      11.658  13.015 -23.128  1.00  0.00    -0.271 OA
ATOM     91  CB  PHE A  12      13.564  11.812 -25.153  1.00  0.00    +0.057 C 
ATOM     92  CG  PHE A  12      14.496  10.633 -25.262  1.00  0.00    -0.020 A 
ATOM     93  CD1 PHE A  12      15.753  10.778 -25.869  1.00  0.00    -0.004 A 
ATOM     94  CE1 PHE A  12      16.613   9.671 -25.957  1.00  0.00    -0.000 A 
ATOM     95  CD2 PHE A  12      14.103   9.394 -24.727  1.00  0.00    -0.004 A 
ATOM     96  CE2 PHE A  12      14.968   8.293 -24.808  1.00  0.00    -0.000 A 
ATOM     97  CZ  PHE A  12      16.222   8.431 -25.424  1.00  0.00    -0.000 A 
ATOM     98  N   ALA A  13      12.680  14.859 -23.916  1.00  0.00    -0.196 N 
ATOM     99  CA  ALA A  13      11.482  15.682 -23.907  1.00  0.00    +0.173 C 
ATOM    100  C   ALA A  13      10.937  15.856 -25.323  1.00  0.00    +0.262 C 
ATOM    101  O   ALA A  13      11.681  16.097 -26.278  1.00  0.00    -0.271 OA
ATOM    102  CB  ALA A  13      11.779  17.037 -23.263  1.00  0.00    +0.033 C 
ATOM    103  N   GLY A  14       9.616  15.817 -25.412  1.00  0.00    -0.194 N 
ATOM    104  CA  GLY A  14       8.851  16.995 -25.793  1.00  0.00    +0.201 C 
ATOM    105  C   GLY A  14       7.360  16.717 -25.661  1.00  0.00    +0.264 C 
ATOM    106  O   GLY A  14       6.942  15.675 -25.141  1.00  0.00    -0.271 OA
ATOM    107  N   SER A  15       6.546  17.642 -26.145  1.00  0.00    -0.194 N 
ATOM    108  CA  SER A  15       5.104  17.451 -26.200  1.00  0.00    +0.205 C 
ATOM    109  C   SER A  15       4.727  16.373 -27.228  1.00  0.00    +0.264 C 
ATOM    110  O   SER A  15       5.450  16.137 -28.201  1.00  0.00    -0.271 OA
ATOM    111  CB  SER A  15       4.472  18.806 -26.517  1.00  0.00    +0.213 C 
ATOM    112  OG  SER A  15       4.639  19.143 -27.883  1.00  0.00    -0.218 OA
ATOM    113  N   SER A  16       3.552  15.764 -27.060  1.00  0.00    -0.194 N 
ATOM    114  CA  SER A  16       2.709  15.408 -28.214  1.00  0.00    +0.205 C 
ATOM    115  C   SER A  16       2.055  16.652 -28.831  1.00  0.00    +0.264 C 
ATOM    116  O   SER A  16       1.445  16.591 -29.895  1.00  0.00    -0.271 OA
ATOM    117  CB  SER A  16       1.598  14.453 -27.762  1.00  0.00    +0.213 C 
ATOM    118  OG  SER A  16       0.760  15.070 -26.796  1.00  0.00    -0.218 OA
ATOM    119  N   ASP A  17       2.111  17.763 -28.109  1.00  0.00    -0.196 N 
ATOM    120  CA  ASP A  17       1.074  18.776 -28.063  1.00  0.00    +0.184 C 
ATOM    121  C   ASP A  17       1.389  19.961 -28.967  1.00  0.00    +0.262 C 
ATOM    122  O   ASP A  17       2.518  20.462 -28.985  1.00  0.00    -0.271 OA
ATOM    123  CB  ASP A  17       0.881  19.233 -26.602  1.00  0.00    +0.145 C 
ATOM    124  CG  ASP A  17      -0.519  18.963 -26.078  1.00  0.00    +0.367 C 
ATOM    125  OD1 ASP A  17      -1.505  19.362 -26.735  1.00  0.00    -0.246 OA
ATOM    126  OD2 ASP A  17      -0.636  18.352 -24.992  1.00  0.00    -0.246 OA
ATOM    127  N   TRP A  18       0.358  20.453 -29.644  1.00  0.00    -0.196 N 
ATOM    128  CA  TRP A  18       0.347  21.786 -30.240  1.00  0.00    +0.177 C 
ATOM    129  C   TRP A  18      -0.946  22.501 -29.894  1.00  0.00    +0.262 C 
ATOM    130  O   TRP A  18      -1.960  21.878 -29.569  1.00  0.00    -0.271 OA
ATOM    131  CB  TRP A  18       0.540  21.745 -31.753  1.00  0.00    +0.055 C 
ATOM    132  CG  TRP A  18       1.929  21.432 -32.186  1.00  0.00    -0.016 C 
ATOM    133  CD1 TRP A  18       2.903  22.326 -32.476  1.00  0.00    +0.148 C 
ATOM    134  CD2 TRP A  18       2.519  20.120 -32.357  1.00  0.00    +0.011 A 
ATOM    135  NE1 TRP A  18       4.053  21.649 -32.832  1.00  0.00    -0.266 NA
ATOM    136  CE2 TRP A  18       3.867  20.285 -32.777  1.00  0.00    +0.076 A 
ATOM    137  CE3 TRP A  18       2.036  18.807 -32.214  1.00  0.00    +0.001 A 
ATOM    138  CZ2 TRP A  18       4.694  19.187 -33.039  1.00  0.00    +0.019 A 
ATOM    139  CZ3 TRP A  18       2.861  17.702 -32.476  1.00  0.00    +0.000 A 
ATOM    140  CH2 TRP A  18       4.186  17.887 -32.885  1.00  0.00    +0.002 A 
ATOM    141  N   ILE A  19      -0.896  23.824 -29.943  1.00  0.00    -0.196 N 
ATOM    142  CA  ILE A  19      -1.879  24.670 -29.274  1.00  0.00    +0.173 C 
ATOM    143  C   ILE A  19      -2.786  25.318 -30.303  1.00  0.00    +0.262 C 
ATOM    144  O   ILE A  19      -2.324  25.742 -31.367  1.00  0.00    -0.271 OA
ATOM    145  CB  ILE A  19      -1.205  25.741 -28.387  1.00  0.00    +0.029 C 
ATOM    146  CG1 ILE A  19       0.257  25.380 -28.046  1.00  0.00    +0.002 C 
ATOM    147  CG2 ILE A  19      -2.032  25.920 -27.103  1.00  0.00    +0.002 C 
ATOM    148  CD1 ILE A  19       0.926  26.326 -27.056  1.00  0.00    +0.000 C 
ATOM    149  N   ARG A  20      -4.070  25.448 -29.971  1.00  0.00    -0.196 N 
ATOM    150  CA  ARG A  20      -4.948  26.348 -30.718  1.00  0.00    +0.173 C 
ATOM    151  C   ARG A  20      -4.686  27.816 -30.397  1.00  0.00    +0.262 C 
ATOM    152  O   ARG A  20      -4.437  28.616 -31.296  1.00  0.00    -0.271 OA
ATOM    153  CB  ARG A  20      -6.424  26.010 -30.515  1.00  0.00    +0.033 C 
ATOM    154  CG  ARG A  20      -6.974  26.079 -29.086  1.00  0.00    +0.029 C 
ATOM    155  CD  ARG A  20      -8.509  26.021 -29.104  1.00  0.00    +0.129 C 
ATOM    156  NE  ARG A  20      -9.200  27.026 -29.933  1.00  0.00    -0.234 NA
ATOM    157  CZ  ARG A  20     -10.311  27.679 -29.643  1.00  0.00    +0.284 C 
ATOM    158  NH1 ARG A  20     -10.905  27.614 -28.483  1.00  0.00    -0.104 N 
ATOM    159  NH2 ARG A  20     -10.865  28.419 -30.556  1.00  0.00    -0.104 N 
ATOM    160  N   ARG A  21      -4.813  28.170 -29.119  1.00  0.00    -0.194 N 
ATOM    161  CA  ARG A  21      -5.572  29.354 -28.677  1.00  0.00    +0.198 C 
ATOM    162  C   ARG A  21      -4.672  30.557 -28.508  1.00  0.00    +0.384 C 
ATOM    163  O   ARG A  21      -5.127  31.681 -28.790  1.00  0.00    -0.244 OA
ATOM    164  CB  ARG A  21      -6.311  29.043 -27.352  1.00  0.00    +0.035 C 
ATOM    165  CG  ARG A  21      -7.794  28.741 -27.528  1.00  0.00    +0.029 C 
ATOM    166  CD  ARG A  21      -8.523  28.137 -26.315  1.00  0.00    +0.129 C 
ATOM    167  NE  ARG A  21      -8.362  26.689 -26.027  1.00  0.00    -0.234 NA
ATOM    168  CZ  ARG A  21      -8.071  26.154 -24.863  1.00  0.00    +0.284 C 
ATOM    169  NH1 ARG A  21      -8.062  24.860 -24.708  1.00  0.00    -0.104 N 
ATOM    170  NH2 ARG A  21      -7.777  26.893 -23.836  1.00  0.00    -0.104 N 
ATOM    171  OXT ARG A  21      -3.521  30.387 -28.061  1.00  0.00    -0.244 OA
ATOM    172  H   MET A   1      19.660 -10.667 -17.558  1.00  0.00    +0.000 HD
ATOM    173  H   MET A   1      20.909  -9.958 -18.401  1.00  0.00    +0.000 HD
ATOM    174  H   LYS A   2      22.083  -8.503 -18.381  1.00  0.00    +0.000 HD
ATOM    175  H   LYS A   2      27.634  -6.991 -17.796  1.00  0.00    +0.000 HD
ATOM    176  H   LYS A   2      27.268  -8.613 -17.890  1.00  0.00    +0.000 HD
ATOM    177  H   GLN A   3      24.098  -5.228 -15.988  1.00  0.00    +0.000 HD
ATOM    178  H   GLN A   3      23.314  -5.529 -14.619  1.00  0.00    +0.000 HD
ATOM    179  H   GLN A   3      22.683  -6.742 -13.601  1.00  0.00    +0.000 HD
ATOM    180  H   ALA A   4      22.106  -1.013 -16.508  1.00  0.00    +0.000 HD
ATOM    181  H   VAL A   5      22.602  -1.894 -21.029  1.00  0.00    +0.000 HD
ATOM    182  H   PHE A   6      24.887   1.739 -22.707  1.00  0.00    +0.000 HD
ATOM    183  H   ALA A   7      20.553   2.308 -23.997  1.00  0.00    +0.000 HD
ATOM    184  H   LEU A   8      22.088   4.380 -22.089  1.00  0.00    +0.000 HD
ATOM    185  H   LEU A   9      21.607   6.987 -20.820  1.00  0.00    +0.000 HD
ATOM    186  H   GLN A  10      19.490   8.501 -21.051  1.00  0.00    +0.000 HD
ATOM    187  H   GLN A  10      19.471  11.374 -25.777  1.00  0.00    +0.000 HD
ATOM    188  H   GLN A  10      18.688  10.547 -24.507  1.00  0.00    +0.000 HD
ATOM    189  H   VAL A  11      17.171  12.400 -20.005  1.00  0.00    +0.000 HD
ATOM    190  H   PHE A  12      14.004  11.061 -22.695  1.00  0.00    +0.000 HD
ATOM    191  H   ALA A  13      13.543  15.275 -24.143  1.00  0.00    +0.000 HD
ATOM    192  H   GLY A  14       9.143  14.976 -25.218  1.00  0.00    +0.000 HD
ATOM    193  H   SER A  15       6.928  18.485 -26.479  1.00  0.00    +0.000 HD
ATOM    194  H   SER A  15       4.206  18.475 -28.436  1.00  0.00    +0.000 HD
ATOM    195  H   SER A  16       3.244  15.549 -26.150  1.00  0.00    +0.000 HD
ATOM    196  H   SER A  16       1.287  15.311 -26.018  1.00  0.00    +0.000 HD
ATOM    197  H   ASP A  17       2.916  17.912 -27.564  1.00  0.00    +0.000 HD
ATOM    198  H   ASP A  17       0.129  18.069 -24.529  1.00  0.00    +0.000 HD
ATOM    199  H   TRP A  18      -0.442  19.888 -29.750  1.00  0.00    +0.000 HD
ATOM    200  H   ILE A  19      -0.169  24.252 -30.449  1.00  0.00    +0.000 HD
ATOM    201  H   ARG A  20      -4.432  24.932 -29.214  1.00  0.00    +0.000 HD
ATOM    202  H   ARG A  20     -10.520  27.065 -27.762  1.00  0.00    +0.000 HD
ATOM    203  H   ARG A  20     -11.740  28.114 -28.328  1.00  0.00    +0.000 HD
ATOM    204  H   ARG A  20     -10.450  28.496 -31.445  1.00  0.00    +0.000 HD
ATOM    205  H   ARG A  20     -11.700  28.901 -30.358  1.00  0.00    +0.000 HD
ATOM    206  H   ARG A  21      -4.376  27.613 -28.435  1.00  0.00    +0.000 HD
ATOM    207  H   ARG A  21      -5.998  31.764 -29.123  1.00  0.00    +0.000 HD
ATOM    208  H   ARG A  21      -8.280  24.273 -25.467  1.00  0.00    +0.000 HD
ATOM    209  H   ARG A  21      -7.837  24.471 -23.833  1.00  0.00    +0.000 HD
ATOM    210  H   ARG A  21      -7.562  26.472 -22.972  1.00  0.00    +0.000 HD
ATOM    211  H   ARG A  21      -7.770  27.873 -23.921  1.00  0.00    +0.000 HD
ENDROOT
TORSDOF 0
