REMARK  Name = /var/folders/yp/yjbh3p597675h2qddgqr02y00000gn/T/tmpdv81dgle.pdb
REMARK     285 UNITARY VALUES FOR THE UNIT CELL AUTOMATICALLY SET
REMARK     285 BY MDANALYSIS PDBWRITER BECAUSE UNIT CELL INFORMATION
REMARK     285 WAS MISSING.
REMARK     285 PROTEIN DATA BANK CONVENTIONS REQUIRE THAT
REMARK     285 CRYST1 RECORD IS INCLUDED, BUT THE VALUES ON
REMARK     285 THIS RECORD ARE MEANINGLESS.
REMARK     285 UNITARY VALUES FOR THE UNIT CELL AUTOMATICALLY SET
REMARK     285 BY MDANALYSIS PDBWRITER BECAUSE UNIT CELL INFORMATION
REMARK     285 WAS MISSING.
REMARK     285 PROTEIN DATA BANK CONVENTIONS REQUIRE THAT
REMARK     285 CRYST1 RECORD IS INCLUDED, BUT THE VALUES ON
REMARK     285 THIS RECORD ARE MEANINGLESS.
REMARK                            x       y       z     vdW  Elec       q    Type
REMARK                         _______ _______ _______ _____ _____    ______ ____
ROOT
ATOM      1  N   MET A   1      -1.645  27.090 -31.380  1.00  0.00    -0.123 NA
ATOM      2  CA  MET A   1      -2.847  26.362 -30.983  1.00  0.00    +0.170 C 
ATOM      3  C   MET A   1      -2.881  26.148 -29.478  1.00  0.00    +0.259 C 
ATOM      4  O   MET A   1      -1.884  25.746 -28.881  1.00  0.00    -0.272 OA
ATOM      5  CB  MET A   1      -2.921  25.017 -31.688  1.00  0.00    +0.040 C 
ATOM      6  CG  MET A   1      -4.129  24.185 -31.289  1.00  0.00    +0.062 C 
ATOM      7  SD  MET A   1      -5.265  25.080 -30.200  1.00  0.00    -0.109 S 
ATOM      8  CE  MET A   1      -5.288  23.990 -28.780  1.00  0.00    +0.202 C 
ATOM      9  N   LYS A   2      -4.031  26.417 -28.865  1.00  0.00    -0.202 N 
ATOM     10  CA  LYS A   2      -4.128  26.434 -27.409  1.00  0.00    +0.139 C 
ATOM     11  C   LYS A   2      -5.003  25.298 -26.905  1.00  0.00    +0.211 C 
ATOM     12  O   LYS A   2      -5.924  24.866 -27.597  1.00  0.00    -0.326 OA
ATOM     13  CB  LYS A   2      -4.685  27.760 -26.919  1.00  0.00    +0.026 C 
ATOM     14  CG  LYS A   2      -5.627  28.434 -27.905  1.00  0.00    +0.008 C 
ATOM     15  CD  LYS A   2      -6.542  29.433 -27.218  1.00  0.00    +0.049 C 
ATOM     16  CE  LYS A   2      -5.800  30.317 -26.323  1.00  0.00    +0.096 C 
ATOM     17  NZ  LYS A   2      -4.731  31.027 -26.672  1.00  0.00    -0.151 NA
ATOM     18  N   GLN A   3      -4.718  24.814 -25.700  1.00  0.00    -0.182 NA
ATOM     19  CA  GLN A   3      -5.695  24.852 -24.614  1.00  0.00    +0.153 C 
ATOM     20  C   GLN A   3      -5.520  26.101 -23.765  1.00  0.00    +0.258 C 
ATOM     21  O   GLN A   3      -4.415  26.401 -23.315  1.00  0.00    -0.272 OA
ATOM     22  CB  GLN A   3      -5.574  23.619 -23.734  1.00  0.00    +0.037 C 
ATOM     23  CG  GLN A   3      -6.147  22.359 -24.363  1.00  0.00    +0.090 C 
ATOM     24  CD  GLN A   3      -5.987  21.135 -23.478  1.00  0.00    +0.261 C 
ATOM     25  OE1 GLN A   3      -6.095  19.992 -23.947  1.00  0.00    -0.272 OA
ATOM     26  NE2 GLN A   3      -5.729  21.360 -22.192  1.00  0.00    -0.088 N 
ATOM     27  N   ALA A   4      -6.610  26.830 -23.548  1.00  0.00    -0.197 N 
ATOM     28  CA  ALA A   4      -6.520  28.213 -23.089  1.00  0.00    +0.173 C 
ATOM     29  C   ALA A   4      -5.792  28.302 -21.758  1.00  0.00    +0.262 C 
ATOM     30  O   ALA A   4      -5.846  27.374 -20.952  1.00  0.00    -0.271 OA
ATOM     31  CB  ALA A   4      -7.903  28.828 -22.951  1.00  0.00    +0.033 C 
ATOM     32  N   VAL A   5      -5.107  29.417 -21.524  1.00  0.00    -0.196 N 
ATOM     33  CA  VAL A   5      -3.784  29.383 -20.908  1.00  0.00    +0.173 C 
ATOM     34  C   VAL A   5      -3.760  30.297 -19.693  1.00  0.00    +0.262 C 
ATOM     35  O   VAL A   5      -4.473  31.299 -19.650  1.00  0.00    -0.271 OA
ATOM     36  CB  VAL A   5      -2.694  29.805 -21.880  1.00  0.00    +0.029 C 
ATOM     37  CG1 VAL A   5      -2.004  28.581 -22.480  1.00  0.00    +0.002 C 
ATOM     38  CG2 VAL A   5      -3.288  30.620 -23.026  1.00  0.00    +0.002 C 
ATOM     39  N   PHE A   6      -2.941  29.953 -18.704  1.00  0.00    -0.196 N 
ATOM     40  CA  PHE A   6      -3.322  28.950 -17.713  1.00  0.00    +0.173 C 
ATOM     41  C   PHE A   6      -4.415  29.484 -16.803  1.00  0.00    +0.262 C 
ATOM     42  O   PHE A   6      -4.315  30.597 -16.292  1.00  0.00    -0.271 OA
ATOM     43  CB  PHE A   6      -2.124  28.532 -16.877  1.00  0.00    +0.031 C 
ATOM     44  CG  PHE A   6      -1.630  27.147 -17.176  1.00  0.00    -0.000 C 
ATOM     45  CD1 PHE A   6      -0.609  26.959 -18.100  1.00  0.00    -0.009 C 
ATOM     46  CE1 PHE A   6      -0.151  25.676 -18.378  1.00  0.00    +0.020 C 
ATOM     47  CD2 PHE A   6      -2.193  26.053 -16.529  1.00  0.00    +0.015 C 
ATOM     48  CE2 PHE A   6      -1.735  24.771 -16.806  1.00  0.00    -0.020 C 
ATOM     49  CZ  PHE A   6      -0.713  24.582 -17.730  1.00  0.00    -0.014 C 
ATOM     50  N   ALA A   7      -5.462  28.688 -16.598  1.00  0.00    -0.196 N 
ATOM     51  CA  ALA A   7      -5.654  27.996 -15.327  1.00  0.00    +0.171 C 
ATOM     52  C   ALA A   7      -4.590  26.931 -15.117  1.00  0.00    +0.244 C 
ATOM     53  O   ALA A   7      -4.355  26.497 -13.989  1.00  0.00    -0.273 OA
ATOM     54  CB  ALA A   7      -7.032  27.356 -15.265  1.00  0.00    +0.033 C 
ATOM     55  N   LEU A   8      -3.945  26.511 -16.200  1.00  0.00    -0.301 N 
ATOM     56  CA  LEU A   8      -3.898  25.094 -16.555  1.00  0.00    +0.082 C 
ATOM     57  C   LEU A   8      -2.870  24.359 -15.710  1.00  0.00    +0.099 C 
ATOM     58  O   LEU A   8      -3.096  23.221 -15.302  1.00  0.00    -0.246 OA
ATOM     59  CB  LEU A   8      -3.563  24.919 -18.027  1.00  0.00    +0.020 C 
ATOM     60  CG  LEU A   8      -4.740  25.016 -19.000  1.00  0.00    +0.002 C 
ATOM     61  CD1 LEU A   8      -4.386  24.346 -20.323  1.00  0.00    +0.000 C 
ATOM     62  CD2 LEU A   8      -4.903  26.447 -19.501  1.00  0.00    +0.000 C 
ATOM     63  N   LEU A   9      -1.739  25.010 -15.447  1.00  0.00    +0.430 N 
ATOM     64  CA  LEU A   9      -0.436  24.387 -15.666  1.00  0.00    +0.032 C 
ATOM     65  C   LEU A   9      -0.199  23.264 -14.670  1.00  0.00    +0.223 C 
ATOM     66  O   LEU A   9      -0.609  23.358 -13.513  1.00  0.00    -0.276 OA
ATOM     67  CB  LEU A   9       0.677  25.415 -15.548  1.00  0.00    -0.007 C 
ATOM     68  CG  LEU A   9       1.014  26.194 -16.821  1.00  0.00    +0.017 C 
ATOM     69  CD1 LEU A   9       0.965  27.694 -16.551  1.00  0.00    +0.004 C 
ATOM     70  CD2 LEU A   9      -0.129  26.100 -17.824  1.00  0.00    -0.045 C 
ATOM     71  N   GLN A  10       0.464  22.201 -15.117  1.00  0.00    -0.199 N 
ATOM     72  CA  GLN A  10       1.292  21.393 -14.226  1.00  0.00    +0.173 C 
ATOM     73  C   GLN A  10       2.702  21.955 -14.132  1.00  0.00    +0.262 C 
ATOM     74  O   GLN A  10       3.340  22.218 -15.149  1.00  0.00    -0.271 OA
ATOM     75  CB  GLN A  10       1.352  19.951 -14.702  1.00  0.00    +0.041 C 
ATOM     76  CG  GLN A  10       2.178  19.045 -13.805  1.00  0.00    +0.091 C 
ATOM     77  CD  GLN A  10       1.637  17.625 -13.742  1.00  0.00    +0.261 C 
ATOM     78  OE1 GLN A  10       1.617  16.906 -14.752  1.00  0.00    -0.272 OA
ATOM     79  NE2 GLN A  10       1.196  17.211 -12.558  1.00  0.00    -0.088 N 
ATOM     80  N   VAL A  11       3.190  22.138 -12.908  1.00  0.00    -0.196 N 
ATOM     81  CA  VAL A  11       4.324  21.359 -12.417  1.00  0.00    +0.173 C 
ATOM     82  C   VAL A  11       3.895  20.527 -11.220  1.00  0.00    +0.262 C 
ATOM     83  O   VAL A  11       3.080  20.967 -10.412  1.00  0.00    -0.271 OA
ATOM     84  CB  VAL A  11       5.496  22.245 -12.026  1.00  0.00    +0.029 C 
ATOM     85  CG1 VAL A  11       5.783  23.273 -13.119  1.00  0.00    +0.002 C 
ATOM     86  CG2 VAL A  11       5.182  23.002 -10.737  1.00  0.00    +0.002 C 
ATOM     87  N   PHE A  12       4.443  19.320 -11.106  1.00  0.00    -0.196 N 
ATOM     88  CA  PHE A  12       5.622  19.095 -10.275  1.00  0.00    +0.177 C 
ATOM     89  C   PHE A  12       6.818  18.704 -11.128  1.00  0.00    +0.262 C 
ATOM     90  O   PHE A  12       7.903  19.261 -10.973  1.00  0.00    -0.271 OA
ATOM     91  CB  PHE A  12       5.358  18.011  -9.242  1.00  0.00    +0.057 C 
ATOM     92  CG  PHE A  12       4.128  18.244  -8.417  1.00  0.00    -0.020 A 
ATOM     93  CD1 PHE A  12       4.243  18.725  -7.118  1.00  0.00    -0.004 A 
ATOM     94  CE1 PHE A  12       3.101  18.940  -6.355  1.00  0.00    -0.000 A 
ATOM     95  CD2 PHE A  12       2.872  17.980  -8.953  1.00  0.00    -0.004 A 
ATOM     96  CE2 PHE A  12       1.732  18.196  -8.188  1.00  0.00    -0.000 A 
ATOM     97  CZ  PHE A  12       1.846  18.676  -6.888  1.00  0.00    -0.000 A 
ATOM     98  N   ALA A  13       6.619  17.745 -12.028  1.00  0.00    -0.196 N 
ATOM     99  CA  ALA A  13       7.160  16.403 -11.840  1.00  0.00    +0.173 C 
ATOM    100  C   ALA A  13       8.654  16.450 -11.563  1.00  0.00    +0.262 C 
ATOM    101  O   ALA A  13       9.410  17.060 -12.318  1.00  0.00    -0.271 OA
ATOM    102  CB  ALA A  13       6.898  15.540 -13.064  1.00  0.00    +0.033 C 
ATOM    103  N   GLY A  14       9.081  15.804 -10.481  1.00  0.00    -0.194 N 
ATOM    104  CA  GLY A  14       9.889  14.594 -10.587  1.00  0.00    +0.201 C 
ATOM    105  C   GLY A  14      11.370  14.931 -10.601  1.00  0.00    +0.264 C 
ATOM    106  O   GLY A  14      11.776  15.987 -10.118  1.00  0.00    -0.271 OA
ATOM    107  N   SER A  15      12.182  14.034 -11.156  1.00  0.00    -0.194 N 
ATOM    108  CA  SER A  15      13.597  13.971 -10.807  1.00  0.00    +0.205 C 
ATOM    109  C   SER A  15      14.367  15.137 -11.408  1.00  0.00    +0.264 C 
ATOM    110  O   SER A  15      14.005  15.640 -12.469  1.00  0.00    -0.271 OA
ATOM    111  CB  SER A  15      14.209  12.662 -11.280  1.00  0.00    +0.213 C 
ATOM    112  OG  SER A  15      14.462  12.700 -12.673  1.00  0.00    -0.218 OA
ATOM    113  N   SER A  16      15.427  15.564 -10.730  1.00  0.00    -0.194 N 
ATOM    114  CA  SER A  16      16.441  16.408 -11.356  1.00  0.00    +0.205 C 
ATOM    115  C   SER A  16      17.235  15.635 -12.397  1.00  0.00    +0.264 C 
ATOM    116  O   SER A  16      17.419  14.425 -12.271  1.00  0.00    -0.271 OA
ATOM    117  CB  SER A  16      17.390  16.972 -10.311  1.00  0.00    +0.213 C 
ATOM    118  OG  SER A  16      18.279  15.971  -9.848  1.00  0.00    -0.218 OA
ATOM    119  N   ASP A  17      17.708  16.332 -13.427  1.00  0.00    -0.196 N 
ATOM    120  CA  ASP A  17      19.011  16.033 -14.013  1.00  0.00    +0.184 C 
ATOM    121  C   ASP A  17      20.082  16.958 -13.460  1.00  0.00    +0.262 C 
ATOM    122  O   ASP A  17      19.837  18.146 -13.258  1.00  0.00    -0.271 OA
ATOM    123  CB  ASP A  17      18.966  16.157 -15.527  1.00  0.00    +0.145 C 
ATOM    124  CG  ASP A  17      18.461  17.511 -16.000  1.00  0.00    +0.367 C 
ATOM    125  OD1 ASP A  17      17.450  18.008 -15.458  1.00  0.00    -0.246 OA
ATOM    126  OD2 ASP A  17      19.083  18.085 -16.920  1.00  0.00    -0.246 OA
ATOM    127  N   TRP A  18      21.271  16.416 -13.216  1.00  0.00    -0.196 N 
ATOM    128  CA  TRP A  18      22.506  17.059 -13.652  1.00  0.00    +0.177 C 
ATOM    129  C   TRP A  18      23.201  16.232 -14.720  1.00  0.00    +0.262 C 
ATOM    130  O   TRP A  18      23.023  15.016 -14.782  1.00  0.00    -0.271 OA
ATOM    131  CB  TRP A  18      23.449  17.270 -12.479  1.00  0.00    +0.059 C 
ATOM    132  CG  TRP A  18      24.791  17.818 -12.861  1.00  0.00    -0.004 C 
ATOM    133  CD1 TRP A  18      25.994  17.165 -12.811  1.00  0.00    +0.078 C 
ATOM    134  CD2 TRP A  18      25.069  19.133 -13.349  1.00  0.00    +0.019 C 
ATOM    135  NE1 TRP A  18      26.979  18.027 -13.248  1.00  0.00    -0.209 N 
ATOM    136  CE2 TRP A  18      26.445  19.238 -13.585  1.00  0.00    +0.193 C 
ATOM    137  CE3 TRP A  18      24.276  20.256 -13.618  1.00  0.00    -0.001 C 
ATOM    138  CZ2 TRP A  18      26.984  20.435 -14.072  1.00  0.00    +0.079 C 
ATOM    139  CZ3 TRP A  18      24.865  21.429 -14.104  1.00  0.00    -0.005 C 
ATOM    140  CH2 TRP A  18      26.144  21.527 -14.323  1.00  0.00    -0.022 C 
ATOM    141  N   ILE A  19      23.993  16.889 -15.563  1.00  0.00    -0.200 N 
ATOM    142  CA  ILE A  19      25.277  16.338 -15.988  1.00  0.00    +0.158 C 
ATOM    143  C   ILE A  19      26.399  16.982 -15.192  1.00  0.00    +0.213 C 
ATOM    144  O   ILE A  19      26.403  18.195 -14.985  1.00  0.00    -0.320 OA
ATOM    145  CB  ILE A  19      25.521  16.549 -17.473  1.00  0.00    +0.101 C 
ATOM    146  CG1 ILE A  19      24.516  15.754 -18.303  1.00  0.00    +0.022 C 
ATOM    147  CG2 ILE A  19      26.939  16.121 -17.846  1.00  0.00    +0.024 C 
ATOM    148  CD1 ILE A  19      24.784  15.791 -19.800  1.00  0.00    +0.002 C 
ATOM    149  N   ARG A  20      27.355  16.172 -14.746  1.00  0.00    -0.182 NA
ATOM    150  CA  ARG A  20      28.768  16.517 -14.881  1.00  0.00    +0.153 C 
ATOM    151  C   ARG A  20      29.310  16.071 -16.228  1.00  0.00    +0.258 C 
ATOM    152  O   ARG A  20      29.055  14.948 -16.665  1.00  0.00    -0.272 OA
ATOM    153  CB  ARG A  20      29.588  15.885 -13.769  1.00  0.00    +0.029 C 
ATOM    154  CG  ARG A  20      29.645  14.367 -13.834  1.00  0.00    +0.028 C 
ATOM    155  CD  ARG A  20      30.432  13.782 -12.672  1.00  0.00    +0.129 C 
ATOM    156  NE  ARG A  20      31.501  12.904 -13.134  1.00  0.00    -0.234 NA
ATOM    157  CZ  ARG A  20      32.324  12.226 -12.337  1.00  0.00    +0.284 C 
ATOM    158  NH1 ARG A  20      32.196  12.293 -11.015  1.00  0.00    -0.104 N 
ATOM    159  NH2 ARG A  20      33.282  11.473 -12.870  1.00  0.00    -0.104 N 
ATOM    160  N   ARG A  21      30.060  16.947 -16.891  1.00  0.00    -0.194 N 
ATOM    161  CA  ARG A  21      30.654  16.617 -18.182  1.00  0.00    +0.198 C 
ATOM    162  C   ARG A  21      32.098  16.170 -18.019  1.00  0.00    +0.384 C 
ATOM    163  O   ARG A  21      32.735  16.470 -17.010  1.00  0.00    -0.244 OA
ATOM    164  CB  ARG A  21      30.596  17.808 -19.124  1.00  0.00    +0.035 C 
ATOM    165  CG  ARG A  21      29.202  18.108 -19.652  1.00  0.00    +0.026 C 
ATOM    166  CD  ARG A  21      28.574  19.298 -18.945  1.00  0.00    +0.115 C 
ATOM    167  NE  ARG A  21      27.259  18.969 -18.401  1.00  0.00    -0.205 N 
ATOM    168  CZ  ARG A  21      27.020  18.650 -17.133  1.00  0.00    +0.241 C 
ATOM    169  NH1 ARG A  21      27.862  19.019 -16.171  1.00  0.00    -0.111 NA
ATOM    170  NH2 ARG A  21      25.929  17.955 -16.824  1.00  0.00    -0.207 N 
ATOM    171  OXT ARG A  21      32.647  15.501 -18.893  1.00  0.00    -0.244 OA
ATOM    172  H   MET A   1      -1.616  27.988 -30.895  1.00  0.00    +0.000 HD
ATOM    173  H   MET A   1      -1.659  27.248 -32.387  1.00  0.00    +0.000 HD
ATOM    174  H   LYS A   2      -4.833  26.608 -29.404  1.00  0.00    +0.000 HD
ATOM    175  H   LYS A   2      -4.387  30.977 -27.593  1.00  0.00    +0.000 HD
ATOM    176  H   GLN A   3      -3.900  25.326 -25.370  1.00  0.00    +0.000 HD
ATOM    177  H   GLN A   3      -5.651  22.284 -21.860  1.00  0.00    +0.000 HD
ATOM    178  H   GLN A   3      -5.615  20.603 -21.572  1.00  0.00    +0.000 HD
ATOM    179  H   ALA A   4      -7.497  26.430 -23.699  1.00  0.00    +0.000 HD
ATOM    180  H   VAL A   5      -5.501  30.284 -21.773  1.00  0.00    +0.000 HD
ATOM    181  H   PHE A   6      -2.058  30.384 -18.638  1.00  0.00    +0.000 HD
ATOM    182  H   ALA A   7      -6.121  28.564 -17.318  1.00  0.00    +0.000 HD
ATOM    183  H   LEU A   8      -3.973  22.936 -15.606  1.00  0.00    +0.000 HD
ATOM    184  H   GLN A  10       0.396  21.954 -16.067  1.00  0.00    +0.000 HD
ATOM    185  H   GLN A  10       1.231  17.815 -11.781  1.00  0.00    +0.000 HD
ATOM    186  H   GLN A  10       0.835  16.301 -12.457  1.00  0.00    +0.000 HD
ATOM    187  H   VAL A  11       2.779  22.813 -12.321  1.00  0.00    +0.000 HD
ATOM    188  H   PHE A  12       4.045  18.561 -11.592  1.00  0.00    +0.000 HD
ATOM    189  H   ALA A  13       6.096  17.945 -12.838  1.00  0.00    +0.000 HD
ATOM    190  H   GLY A  14       8.846  16.150  -9.590  1.00  0.00    +0.000 HD
ATOM    191  H   SER A  15      11.820  13.399 -11.815  1.00  0.00    +0.000 HD
ATOM    192  H   SER A  15      13.629  12.837 -13.149  1.00  0.00    +0.000 HD
ATOM    193  H   SER A  16      15.531  15.307  -9.785  1.00  0.00    +0.000 HD
ATOM    194  H   SER A  16      17.772  15.250  -9.442  1.00  0.00    +0.000 HD
ATOM    195  H   ASP A  17      17.167  17.065 -13.801  1.00  0.00    +0.000 HD
ATOM    196  H   ASP A  17      19.836  17.679 -17.300  1.00  0.00    +0.000 HD
ATOM    197  H   TRP A  18      21.319  15.561 -12.729  1.00  0.00    +0.000 HD
ATOM    198  H   TRP A  18      27.935  17.800 -13.309  1.00  0.00    +0.000 HD
ATOM    199  H   ILE A  19      23.707  17.766 -15.908  1.00  0.00    +0.000 HD
ATOM    200  H   ARG A  20      27.227  15.283 -15.229  1.00  0.00    +0.000 HD
ATOM    201  H   ARG A  20      31.488  12.849 -10.617  1.00  0.00    +0.000 HD
ATOM    202  H   ARG A  20      32.809  11.787 -10.436  1.00  0.00    +0.000 HD
ATOM    203  H   ARG A  20      33.381  11.421 -13.848  1.00  0.00    +0.000 HD
ATOM    204  H   ARG A  20      33.894  10.968 -12.286  1.00  0.00    +0.000 HD
ATOM    205  H   ARG A  21      30.218  17.838 -16.501  1.00  0.00    +0.000 HD
ATOM    206  H   ARG A  21      26.492  18.985 -19.019  1.00  0.00    +0.000 HD
ATOM    207  H   ARG A  21      28.671  19.533 -16.395  1.00  0.00    +0.000 HD
ATOM    208  H   ARG A  21      25.327  18.333 -16.143  1.00  0.00    +0.000 HD
ATOM    209  H   ARG A  21      32.176  15.264 -19.667  1.00  0.00    +0.000 HD
ENDROOT
TORSDOF 0
