REMARK  Name = /var/folders/yp/yjbh3p597675h2qddgqr02y00000gn/T/tmpbeyz1n_z.pdb
REMARK     285 UNITARY VALUES FOR THE UNIT CELL AUTOMATICALLY SET
REMARK     285 BY MDANALYSIS PDBWRITER BECAUSE UNIT CELL INFORMATION
REMARK     285 WAS MISSING.
REMARK     285 PROTEIN DATA BANK CONVENTIONS REQUIRE THAT
REMARK     285 CRYST1 RECORD IS INCLUDED, BUT THE VALUES ON
REMARK     285 THIS RECORD ARE MEANINGLESS.
REMARK     285 UNITARY VALUES FOR THE UNIT CELL AUTOMATICALLY SET
REMARK     285 BY MDANALYSIS PDBWRITER BECAUSE UNIT CELL INFORMATION
REMARK     285 WAS MISSING.
REMARK     285 PROTEIN DATA BANK CONVENTIONS REQUIRE THAT
REMARK     285 CRYST1 RECORD IS INCLUDED, BUT THE VALUES ON
REMARK     285 THIS RECORD ARE MEANINGLESS.
REMARK                            x       y       z     vdW  Elec       q    Type
REMARK                         _______ _______ _______ _____ _____    ______ ____
ROOT
ATOM      1  N   MET A   1      24.025 -19.694  -4.940  1.00  0.00    -0.123 NA
ATOM      2  CA  MET A   1      24.193 -19.564  -6.386  1.00  0.00    +0.170 C 
ATOM      3  C   MET A   1      23.084 -20.290  -7.129  1.00  0.00    +0.259 C 
ATOM      4  O   MET A   1      22.636 -21.353  -6.702  1.00  0.00    -0.272 OA
ATOM      5  CB  MET A   1      25.542 -20.112  -6.825  1.00  0.00    +0.040 C 
ATOM      6  CG  MET A   1      25.662 -21.621  -6.681  1.00  0.00    +0.060 C 
ATOM      7  SD  MET A   1      27.219 -22.264  -7.345  1.00  0.00    -0.139 S 
ATOM      8  CE  MET A   1      27.093 -23.985  -6.873  1.00  0.00    +0.069 C 
ATOM      9  N   LYS A   2      22.641 -19.717  -8.245  1.00  0.00    -0.197 N 
ATOM     10  CA  LYS A   2      21.620 -20.353  -9.071  1.00  0.00    +0.173 C 
ATOM     11  C   LYS A   2      22.218 -21.467  -9.918  1.00  0.00    +0.262 C 
ATOM     12  O   LYS A   2      23.329 -21.334 -10.429  1.00  0.00    -0.271 OA
ATOM     13  CB  LYS A   2      20.944 -19.335  -9.976  1.00  0.00    +0.031 C 
ATOM     14  CG  LYS A   2      19.828 -19.916 -10.830  1.00  0.00    +0.009 C 
ATOM     15  CD  LYS A   2      18.570 -20.173 -10.017  1.00  0.00    +0.049 C 
ATOM     16  CE  LYS A   2      17.416 -19.474 -10.576  1.00  0.00    +0.096 C 
ATOM     17  NZ  LYS A   2      16.165 -19.925 -10.539  1.00  0.00    -0.151 NA
ATOM     18  N   GLN A   3      21.481 -22.563 -10.067  1.00  0.00    -0.196 N 
ATOM     19  CA  GLN A   3      21.340 -23.213 -11.367  1.00  0.00    +0.173 C 
ATOM     20  C   GLN A   3      19.881 -23.485 -11.688  1.00  0.00    +0.262 C 
ATOM     21  O   GLN A   3      19.031 -23.460 -10.798  1.00  0.00    -0.271 OA
ATOM     22  CB  GLN A   3      22.122 -24.516 -11.409  1.00  0.00    +0.041 C 
ATOM     23  CG  GLN A   3      23.628 -24.326 -11.467  1.00  0.00    +0.091 C 
ATOM     24  CD  GLN A   3      24.389 -25.643 -11.439  1.00  0.00    +0.261 C 
ATOM     25  OE1 GLN A   3      25.100 -25.945 -10.470  1.00  0.00    -0.272 OA
ATOM     26  NE2 GLN A   3      24.246 -26.432 -12.499  1.00  0.00    -0.088 N 
ATOM     27  N   ALA A   4      19.586 -23.743 -12.959  1.00  0.00    -0.199 N 
ATOM     28  CA  ALA A   4      19.846 -22.765 -14.012  1.00  0.00    +0.147 C 
ATOM     29  C   ALA A   4      18.714 -22.741 -15.026  1.00  0.00    +0.244 C 
ATOM     30  O   ALA A   4      17.906 -23.666 -15.084  1.00  0.00    -0.273 OA
ATOM     31  CB  ALA A   4      21.155 -23.072 -14.721  1.00  0.00    +0.031 C 
ATOM     32  N   VAL A   5      18.654 -21.680 -15.826  1.00  0.00    -0.269 N 
ATOM     33  CA  VAL A   5      17.690 -21.607 -16.919  1.00  0.00    +0.179 C 
ATOM     34  C   VAL A   5      18.158 -22.474 -18.076  1.00  0.00    +0.262 C 
ATOM     35  O   VAL A   5      19.354 -22.558 -18.351  1.00  0.00    -0.271 OA
ATOM     36  CB  VAL A   5      17.489 -20.180 -17.405  1.00  0.00    +0.120 C 
ATOM     37  CG1 VAL A   5      17.004 -19.286 -16.265  1.00  0.00    +0.032 C 
ATOM     38  CG2 VAL A   5      18.803 -19.606 -17.928  1.00  0.00    +0.032 C 
ATOM     39  N   PHE A   6      17.216 -23.120 -18.757  1.00  0.00    -0.199 N 
ATOM     40  CA  PHE A   6      17.389 -24.511 -19.164  1.00  0.00    +0.169 C 
ATOM     41  C   PHE A   6      18.385 -24.617 -20.309  1.00  0.00    +0.296 C 
ATOM     42  O   PHE A   6      19.273 -25.469 -20.288  1.00  0.00    -0.175 OA
ATOM     43  CB  PHE A   6      16.064 -25.124 -19.587  1.00  0.00    +0.055 C 
ATOM     44  CG  PHE A   6      16.195 -26.486 -20.204  1.00  0.00    -0.020 A 
ATOM     45  CD1 PHE A   6      17.455 -27.032 -20.420  1.00  0.00    -0.004 A 
ATOM     46  CE1 PHE A   6      17.575 -28.294 -20.991  1.00  0.00    -0.000 A 
ATOM     47  CD2 PHE A   6      15.056 -27.200 -20.558  1.00  0.00    -0.004 A 
ATOM     48  CE2 PHE A   6      15.177 -28.461 -21.130  1.00  0.00    -0.000 A 
ATOM     49  CZ  PHE A   6      16.436 -29.008 -21.346  1.00  0.00    -0.000 A 
ATOM     50  N   ALA A   7      18.237 -23.752 -21.308  1.00  0.00    -0.186 NA
ATOM     51  CA  ALA A   7      18.493 -24.139 -22.692  1.00  0.00    +0.143 C 
ATOM     52  C   ALA A   7      19.963 -24.464 -22.905  1.00  0.00    +0.256 C 
ATOM     53  O   ALA A   7      20.296 -25.398 -23.636  1.00  0.00    -0.272 OA
ATOM     54  CB  ALA A   7      18.075 -23.034 -23.648  1.00  0.00    +0.028 C 
ATOM     55  N   LEU A   8      20.843 -23.696 -22.269  1.00  0.00    -0.201 N 
ATOM     56  CA  LEU A   8      20.854 -23.599 -20.812  1.00  0.00    +0.151 C 
ATOM     57  C   LEU A   8      19.560 -22.991 -20.299  1.00  0.00    +0.231 C 
ATOM     58  O   LEU A   8      18.810 -23.641 -19.571  1.00  0.00    -0.293 OA
ATOM     59  CB  LEU A   8      22.031 -22.764 -20.336  1.00  0.00    +0.027 C 
ATOM     60  CG  LEU A   8      23.213 -23.539 -19.749  1.00  0.00    +0.002 C 
ATOM     61  CD1 LEU A   8      22.777 -24.299 -18.503  1.00  0.00    +0.000 C 
ATOM     62  CD2 LEU A   8      24.211 -22.585 -19.102  1.00  0.00    +0.000 C 
ATOM     63  N   LEU A   9      19.295 -21.744 -20.679  1.00  0.00    -0.177 NA
ATOM     64  CA  LEU A   9      18.841 -20.738 -19.723  1.00  0.00    +0.121 C 
ATOM     65  C   LEU A   9      17.384 -20.966 -19.351  1.00  0.00    +0.206 C 
ATOM     66  O   LEU A   9      16.966 -20.649 -18.238  1.00  0.00    -0.341 OA
ATOM     67  CB  LEU A   9      19.005 -19.340 -20.294  1.00  0.00    +0.022 C 
ATOM     68  CG  LEU A   9      20.408 -18.737 -20.204  1.00  0.00    +0.002 C 
ATOM     69  CD1 LEU A   9      20.575 -17.629 -21.237  1.00  0.00    +0.000 C 
ATOM     70  CD2 LEU A   9      21.447 -19.715 -20.741  1.00  0.00    +0.000 C 
ATOM     71  N   GLN A  10      16.610 -21.517 -20.282  1.00  0.00    -0.183 NA
ATOM     72  CA  GLN A  10      15.429 -20.827 -20.793  1.00  0.00    +0.153 C 
ATOM     73  C   GLN A  10      14.272 -20.923 -19.812  1.00  0.00    +0.258 C 
ATOM     74  O   GLN A  10      13.344 -20.116 -19.857  1.00  0.00    -0.272 OA
ATOM     75  CB  GLN A  10      15.005 -21.400 -22.135  1.00  0.00    +0.037 C 
ATOM     76  CG  GLN A  10      15.769 -20.825 -23.316  1.00  0.00    +0.090 C 
ATOM     77  CD  GLN A  10      15.589 -21.639 -24.587  1.00  0.00    +0.261 C 
ATOM     78  OE1 GLN A  10      16.028 -21.231 -25.673  1.00  0.00    -0.272 OA
ATOM     79  NE2 GLN A  10      14.945 -22.797 -24.464  1.00  0.00    -0.088 N 
ATOM     80  N   VAL A  11      14.325 -21.910 -18.923  1.00  0.00    -0.197 N 
ATOM     81  CA  VAL A  11      13.929 -21.703 -17.532  1.00  0.00    +0.173 C 
ATOM     82  C   VAL A  11      15.123 -21.936 -16.620  1.00  0.00    +0.262 C 
ATOM     83  O   VAL A  11      15.830 -22.932 -16.757  1.00  0.00    -0.271 OA
ATOM     84  CB  VAL A  11      12.791 -22.623 -17.123  1.00  0.00    +0.029 C 
ATOM     85  CG1 VAL A  11      12.119 -22.115 -15.848  1.00  0.00    +0.002 C 
ATOM     86  CG2 VAL A  11      11.732 -22.681 -18.222  1.00  0.00    +0.002 C 
ATOM     87  N   PHE A  12      15.346 -21.017 -15.685  1.00  0.00    -0.196 N 
ATOM     88  CA  PHE A  12      16.110 -21.326 -14.481  1.00  0.00    +0.175 C 
ATOM     89  C   PHE A  12      15.180 -21.611 -13.312  1.00  0.00    +0.262 C 
ATOM     90  O   PHE A  12      15.617 -21.662 -12.163  1.00  0.00    -0.271 OA
ATOM     91  CB  PHE A  12      17.042 -20.181 -14.119  1.00  0.00    +0.054 C 
ATOM     92  CG  PHE A  12      18.490 -20.476 -14.375  1.00  0.00    +0.081 C 
ATOM     93  CD1 PHE A  12      19.150 -21.434 -13.615  1.00  0.00    +0.025 C 
ATOM     94  CE1 PHE A  12      20.493 -21.706 -13.851  1.00  0.00    +0.033 C 
ATOM     95  CD2 PHE A  12      19.173 -19.789 -15.373  1.00  0.00    -0.013 C 
ATOM     96  CE2 PHE A  12      20.515 -20.061 -15.611  1.00  0.00    -0.029 C 
ATOM     97  CZ  PHE A  12      21.175 -21.019 -14.850  1.00  0.00    +0.028 C 
ATOM     98  N   ALA A  13      13.895 -21.797 -13.603  1.00  0.00    -0.196 N 
ATOM     99  CA  ALA A  13      12.857 -21.664 -12.586  1.00  0.00    +0.173 C 
ATOM    100  C   ALA A  13      13.048 -22.682 -11.473  1.00  0.00    +0.262 C 
ATOM    101  O   ALA A  13      13.172 -23.877 -11.735  1.00  0.00    -0.271 OA
ATOM    102  CB  ALA A  13      11.477 -21.833 -13.198  1.00  0.00    +0.033 C 
ATOM    103  N   GLY A  14      13.072 -22.210 -10.231  1.00  0.00    -0.194 N 
ATOM    104  CA  GLY A  14      13.065 -23.104  -9.076  1.00  0.00    +0.201 C 
ATOM    105  C   GLY A  14      14.484 -23.432  -8.638  1.00  0.00    +0.264 C 
ATOM    106  O   GLY A  14      14.988 -22.855  -7.677  1.00  0.00    -0.271 OA
ATOM    107  N   SER A  15      15.128 -24.358  -9.344  1.00  0.00    -0.194 N 
ATOM    108  CA  SER A  15      15.593 -25.596  -8.727  1.00  0.00    +0.205 C 
ATOM    109  C   SER A  15      16.640 -25.321  -7.660  1.00  0.00    +0.264 C 
ATOM    110  O   SER A  15      17.262 -24.260  -7.653  1.00  0.00    -0.271 OA
ATOM    111  CB  SER A  15      16.171 -26.534  -9.775  1.00  0.00    +0.213 C 
ATOM    112  OG  SER A  15      17.462 -26.107 -10.173  1.00  0.00    -0.218 OA
ATOM    113  N   SER A  16      16.838 -26.279  -6.759  1.00  0.00    -0.194 N 
ATOM    114  CA  SER A  16      18.082 -27.043  -6.721  1.00  0.00    +0.205 C 
ATOM    115  C   SER A  16      18.266 -27.862  -7.988  1.00  0.00    +0.264 C 
ATOM    116  O   SER A  16      19.392 -28.147  -8.390  1.00  0.00    -0.271 OA
ATOM    117  CB  SER A  16      18.109 -27.964  -5.513  1.00  0.00    +0.213 C 
ATOM    118  OG  SER A  16      16.961 -28.794  -5.487  1.00  0.00    -0.218 OA
ATOM    119  N   ASP A  17      17.157 -28.243  -8.618  1.00  0.00    -0.196 N 
ATOM    120  CA  ASP A  17      16.420 -29.435  -8.206  1.00  0.00    +0.184 C 
ATOM    121  C   ASP A  17      16.757 -30.619  -9.097  1.00  0.00    +0.262 C 
ATOM    122  O   ASP A  17      17.085 -30.446 -10.269  1.00  0.00    -0.271 OA
ATOM    123  CB  ASP A  17      14.921 -29.183  -8.240  1.00  0.00    +0.145 C 
ATOM    124  CG  ASP A  17      14.458 -28.200  -7.177  1.00  0.00    +0.367 C 
ATOM    125  OD1 ASP A  17      15.085 -28.128  -6.099  1.00  0.00    -0.246 OA
ATOM    126  OD2 ASP A  17      13.458 -27.492  -7.424  1.00  0.00    -0.246 OA
ATOM    127  N   TRP A  18      16.674 -31.825  -8.541  1.00  0.00    -0.196 N 
ATOM    128  CA  TRP A  18      17.265 -32.998  -9.179  1.00  0.00    +0.177 C 
ATOM    129  C   TRP A  18      16.187 -33.968  -9.632  1.00  0.00    +0.262 C 
ATOM    130  O   TRP A  18      15.013 -33.791  -9.315  1.00  0.00    -0.271 OA
ATOM    131  CB  TRP A  18      18.221 -33.704  -8.232  1.00  0.00    +0.055 C 
ATOM    132  CG  TRP A  18      17.617 -34.062  -6.906  1.00  0.00    -0.014 C 
ATOM    133  CD1 TRP A  18      18.277 -34.517  -5.795  1.00  0.00    +0.091 C 
ATOM    134  CD2 TRP A  18      16.233 -33.994  -6.551  1.00  0.00    +0.083 C 
ATOM    135  NE1 TRP A  18      17.351 -34.724  -4.791  1.00  0.00    -0.247 NA
ATOM    136  CE2 TRP A  18      16.095 -34.415  -5.224  1.00  0.00    +0.082 C 
ATOM    137  CE3 TRP A  18      15.074 -33.614  -7.238  1.00  0.00    -0.016 C 
ATOM    138  CZ2 TRP A  18      14.828 -34.442  -4.628  1.00  0.00    +0.087 C 
ATOM    139  CZ3 TRP A  18      13.831 -33.661  -6.595  1.00  0.00    -0.003 C 
ATOM    140  CH2 TRP A  18      13.701 -34.051  -5.359  1.00  0.00    +0.018 C 
ATOM    141  N   ILE A  19      16.586 -34.998 -10.375  1.00  0.00    -0.196 N 
ATOM    142  CA  ILE A  19      15.925 -36.297 -10.292  1.00  0.00    +0.173 C 
ATOM    143  C   ILE A  19      16.941 -37.367  -9.930  1.00  0.00    +0.262 C 
ATOM    144  O   ILE A  19      18.052 -37.378 -10.459  1.00  0.00    -0.271 OA
ATOM    145  CB  ILE A  19      15.238 -36.669 -11.596  1.00  0.00    +0.029 C 
ATOM    146  CG1 ILE A  19      14.172 -35.640 -11.959  1.00  0.00    +0.002 C 
ATOM    147  CG2 ILE A  19      14.595 -38.050 -11.482  1.00  0.00    +0.002 C 
ATOM    148  CD1 ILE A  19      13.348 -36.010 -13.181  1.00  0.00    +0.000 C 
ATOM    149  N   ARG A  20      16.565 -38.267  -9.025  1.00  0.00    -0.196 N 
ATOM    150  CA  ARG A  20      16.667 -37.997  -7.595  1.00  0.00    +0.173 C 
ATOM    151  C   ARG A  20      18.115 -37.791  -7.182  1.00  0.00    +0.262 C 
ATOM    152  O   ARG A  20      18.466 -36.749  -6.630  1.00  0.00    -0.271 OA
ATOM    153  CB  ARG A  20      16.065 -39.132  -6.784  1.00  0.00    +0.033 C 
ATOM    154  CG  ARG A  20      16.260 -38.987  -5.284  1.00  0.00    +0.029 C 
ATOM    155  CD  ARG A  20      15.297 -37.975  -4.685  1.00  0.00    +0.128 C 
ATOM    156  NE  ARG A  20      15.963 -37.094  -3.730  1.00  0.00    -0.239 NA
ATOM    157  CZ  ARG A  20      15.554 -35.869  -3.413  1.00  0.00    +0.241 C 
ATOM    158  NH1 ARG A  20      14.509 -35.323  -4.028  1.00  0.00    -0.178 N 
ATOM    159  NH2 ARG A  20      16.196 -35.184  -2.472  1.00  0.00    -0.089 N 
ATOM    160  N   ARG A  21      18.959 -38.784  -7.450  1.00  0.00    -0.194 N 
ATOM    161  CA  ARG A  21      19.621 -38.887  -8.747  1.00  0.00    +0.198 C 
ATOM    162  C   ARG A  21      19.897 -37.511  -9.329  1.00  0.00    +0.384 C 
ATOM    163  O   ARG A  21      19.245 -36.535  -8.960  1.00  0.00    -0.244 OA
ATOM    164  CB  ARG A  21      18.779 -39.692  -9.724  1.00  0.00    +0.035 C 
ATOM    165  CG  ARG A  21      19.240 -39.580 -11.169  1.00  0.00    +0.029 C 
ATOM    166  CD  ARG A  21      20.641 -38.998 -11.271  1.00  0.00    +0.129 C 
ATOM    167  NE  ARG A  21      21.664 -40.018 -11.067  1.00  0.00    -0.234 NA
ATOM    168  CZ  ARG A  21      21.669 -40.902 -10.073  1.00  0.00    +0.284 C 
ATOM    169  NH1 ARG A  21      20.657 -40.958  -9.212  1.00  0.00    -0.104 N 
ATOM    170  NH2 ARG A  21      22.697 -41.735  -9.937  1.00  0.00    -0.104 N 
ATOM    171  OXT ARG A  21      20.777 -37.354 -10.174  1.00  0.00    -0.244 OA
ATOM    172  H   MET A   1      24.781 -19.200  -4.464  1.00  0.00    +0.000 HD
ATOM    173  H   MET A   1      24.048 -20.680  -4.682  1.00  0.00    +0.000 HD
ATOM    174  H   LYS A   2      23.008 -18.845  -8.519  1.00  0.00    +0.000 HD
ATOM    175  H   LYS A   2      15.967 -20.790 -10.112  1.00  0.00    +0.000 HD
ATOM    176  H   GLN A   3      21.021 -22.945  -9.286  1.00  0.00    +0.000 HD
ATOM    177  H   GLN A   3      24.716 -27.297 -12.535  1.00  0.00    +0.000 HD
ATOM    178  H   GLN A   3      23.671 -26.152 -13.248  1.00  0.00    +0.000 HD
ATOM    179  H   ALA A   4      19.185 -24.611 -13.194  1.00  0.00    +0.000 HD
ATOM    180  H   PHE A   6      16.383 -22.650 -18.991  1.00  0.00    +0.000 HD
ATOM    181  H   PHE A   6      19.812 -25.394 -21.091  1.00  0.00    +0.000 HD
ATOM    182  H   LEU A   8      21.500 -23.181 -22.791  1.00  0.00    +0.000 HD
ATOM    183  H   LEU A   9      18.573 -21.809 -21.396  1.00  0.00    +0.000 HD
ATOM    184  H   GLN A  10      16.282 -22.404 -19.898  1.00  0.00    +0.000 HD
ATOM    185  H   GLN A  10      14.799 -23.366 -25.254  1.00  0.00    +0.000 HD
ATOM    186  H   GLN A  10      14.613 -23.085 -23.582  1.00  0.00    +0.000 HD
ATOM    187  H   VAL A  11      14.636 -22.799 -19.208  1.00  0.00    +0.000 HD
ATOM    188  H   PHE A  12      14.989 -20.108 -15.809  1.00  0.00    +0.000 HD
ATOM    189  H   ALA A  13      13.639 -22.029 -14.525  1.00  0.00    +0.000 HD
ATOM    190  H   GLY A  14      13.094 -21.236 -10.086  1.00  0.00    +0.000 HD
ATOM    191  H   SER A  15      15.293 -24.205 -10.302  1.00  0.00    +0.000 HD
ATOM    192  H   SER A  15      18.054 -26.108  -9.404  1.00  0.00    +0.000 HD
ATOM    193  H   SER A  16      16.131 -26.477  -6.103  1.00  0.00    +0.000 HD
ATOM    194  H   SER A  16      16.940 -29.343  -6.287  1.00  0.00    +0.000 HD
ATOM    195  H   ASP A  17      16.827 -27.710  -9.376  1.00  0.00    +0.000 HD
ATOM    196  H   ASP A  17      13.015 -27.576  -8.245  1.00  0.00    +0.000 HD
ATOM    197  H   TRP A  18      16.205 -31.928  -7.682  1.00  0.00    +0.000 HD
ATOM    198  H   ILE A  19      17.342 -34.882 -10.994  1.00  0.00    +0.000 HD
ATOM    199  H   ARG A  20      16.210 -39.135  -9.327  1.00  0.00    +0.000 HD
ATOM    200  H   ARG A  20      13.584 -35.653  -3.962  1.00  0.00    +0.000 HD
ATOM    201  H   ARG A  20      16.971 -35.584  -2.014  1.00  0.00    +0.000 HD
ATOM    202  H   ARG A  20      15.898 -34.277  -2.233  1.00  0.00    +0.000 HD
ATOM    203  H   ARG A  21      19.140 -39.463  -6.761  1.00  0.00    +0.000 HD
ATOM    204  H   ARG A  21      18.572 -36.638  -8.317  1.00  0.00    +0.000 HD
ATOM    205  H   ARG A  21      20.669 -41.616  -8.479  1.00  0.00    +0.000 HD
ATOM    206  H   ARG A  21      19.895 -40.343  -9.307  1.00  0.00    +0.000 HD
ATOM    207  H   ARG A  21      23.449 -41.697 -10.572  1.00  0.00    +0.000 HD
ATOM    208  H   ARG A  21      22.706 -42.390  -9.202  1.00  0.00    +0.000 HD
ENDROOT
TORSDOF 0
