REMARK  Name = /var/folders/yp/yjbh3p597675h2qddgqr02y00000gn/T/tmp0xnf758f.pdb
REMARK     285 UNITARY VALUES FOR THE UNIT CELL AUTOMATICALLY SET
REMARK     285 BY MDANALYSIS PDBWRITER BECAUSE UNIT CELL INFORMATION
REMARK     285 WAS MISSING.
REMARK     285 PROTEIN DATA BANK CONVENTIONS REQUIRE THAT
REMARK     285 CRYST1 RECORD IS INCLUDED, BUT THE VALUES ON
REMARK     285 THIS RECORD ARE MEANINGLESS.
REMARK     285 UNITARY VALUES FOR THE UNIT CELL AUTOMATICALLY SET
REMARK     285 BY MDANALYSIS PDBWRITER BECAUSE UNIT CELL INFORMATION
REMARK     285 WAS MISSING.
REMARK     285 PROTEIN DATA BANK CONVENTIONS REQUIRE THAT
REMARK     285 CRYST1 RECORD IS INCLUDED, BUT THE VALUES ON
REMARK     285 THIS RECORD ARE MEANINGLESS.
REMARK                            x       y       z     vdW  Elec       q    Type
REMARK                         _______ _______ _______ _____ _____    ______ ____
ROOT
ATOM      1  N   MET A   1      16.192  -1.845   3.496  1.00  0.00    -0.123 NA
ATOM      2  CA  MET A   1      17.048  -2.821   4.166  1.00  0.00    +0.170 C 
ATOM      3  C   MET A   1      16.891  -4.198   3.542  1.00  0.00    +0.259 C 
ATOM      4  O   MET A   1      15.775  -4.638   3.272  1.00  0.00    -0.272 OA
ATOM      5  CB  MET A   1      16.726  -2.897   5.650  1.00  0.00    +0.040 C 
ATOM      6  CG  MET A   1      17.598  -3.880   6.413  1.00  0.00    +0.060 C 
ATOM      7  SD  MET A   1      16.920  -5.559   6.417  1.00  0.00    -0.139 S 
ATOM      8  CE  MET A   1      17.092  -5.979   8.148  1.00  0.00    +0.069 C 
ATOM      9  N   LYS A   2      18.010  -4.881   3.314  1.00  0.00    -0.197 N 
ATOM     10  CA  LYS A   2      17.995  -6.143   2.580  1.00  0.00    +0.173 C 
ATOM     11  C   LYS A   2      17.236  -7.212   3.349  1.00  0.00    +0.262 C 
ATOM     12  O   LYS A   2      17.555  -7.496   4.503  1.00  0.00    -0.271 OA
ATOM     13  CB  LYS A   2      19.408  -6.624   2.302  1.00  0.00    +0.031 C 
ATOM     14  CG  LYS A   2      19.472  -7.967   1.591  1.00  0.00    +0.009 C 
ATOM     15  CD  LYS A   2      18.673  -7.960   0.299  1.00  0.00    +0.049 C 
ATOM     16  CE  LYS A   2      19.022  -9.092  -0.556  1.00  0.00    +0.096 C 
ATOM     17  NZ  LYS A   2      18.460  -9.355  -1.732  1.00  0.00    -0.151 NA
ATOM     18  N   GLN A   3      16.233  -7.807   2.711  1.00  0.00    -0.196 N 
ATOM     19  CA  GLN A   3      16.070  -9.258   2.733  1.00  0.00    +0.173 C 
ATOM     20  C   GLN A   3      17.056  -9.932   1.794  1.00  0.00    +0.262 C 
ATOM     21  O   GLN A   3      17.313  -9.437   0.698  1.00  0.00    -0.271 OA
ATOM     22  CB  GLN A   3      14.653  -9.651   2.350  1.00  0.00    +0.041 C 
ATOM     23  CG  GLN A   3      14.387 -11.145   2.434  1.00  0.00    +0.091 C 
ATOM     24  CD  GLN A   3      14.395 -11.665   3.863  1.00  0.00    +0.261 C 
ATOM     25  OE1 GLN A   3      13.773 -11.073   4.758  1.00  0.00    -0.272 OA
ATOM     26  NE2 GLN A   3      15.097 -12.771   4.088  1.00  0.00    -0.088 N 
ATOM     27  N   ALA A   4      17.611 -11.063   2.223  1.00  0.00    -0.196 N 
ATOM     28  CA  ALA A   4      18.409 -11.903   1.334  1.00  0.00    +0.171 C 
ATOM     29  C   ALA A   4      17.550 -12.501   0.231  1.00  0.00    +0.246 C 
ATOM     30  O   ALA A   4      16.392 -12.847   0.457  1.00  0.00    -0.273 OA
ATOM     31  CB  ALA A   4      19.085 -13.019   2.112  1.00  0.00    +0.033 C 
ATOM     32  N   VAL A   5      18.117 -12.621  -0.966  1.00  0.00    -0.276 N 
ATOM     33  CA  VAL A   5      17.687 -13.647  -1.910  1.00  0.00    +0.119 C 
ATOM     34  C   VAL A   5      18.887 -14.455  -2.375  1.00  0.00    +0.208 C 
ATOM     35  O   VAL A   5      19.948 -13.895  -2.650  1.00  0.00    -0.338 OA
ATOM     36  CB  VAL A   5      16.980 -13.049  -3.115  1.00  0.00    +0.022 C 
ATOM     37  CG1 VAL A   5      16.808 -14.095  -4.215  1.00  0.00    +0.002 C 
ATOM     38  CG2 VAL A   5      15.594 -12.544  -2.723  1.00  0.00    +0.002 C 
ATOM     39  N   PHE A   6      18.723 -15.771  -2.464  1.00  0.00    -0.182 NA
ATOM     40  CA  PHE A   6      19.806 -16.697  -2.147  1.00  0.00    +0.157 C 
ATOM     41  C   PHE A   6      20.805 -16.769  -3.293  1.00  0.00    +0.258 C 
ATOM     42  O   PHE A   6      20.421 -16.954  -4.446  1.00  0.00    -0.272 OA
ATOM     43  CB  PHE A   6      19.267 -18.087  -1.858  1.00  0.00    +0.053 C 
ATOM     44  CG  PHE A   6      18.736 -18.795  -3.071  1.00  0.00    -0.020 A 
ATOM     45  CD1 PHE A   6      19.608 -19.206  -4.073  1.00  0.00    -0.004 A 
ATOM     46  CE1 PHE A   6      19.115 -19.862  -5.195  1.00  0.00    -0.000 A 
ATOM     47  CD2 PHE A   6      17.373 -19.041  -3.191  1.00  0.00    -0.004 A 
ATOM     48  CE2 PHE A   6      16.881 -19.697  -4.314  1.00  0.00    -0.000 A 
ATOM     49  CZ  PHE A   6      17.753 -20.107  -5.315  1.00  0.00    -0.000 A 
ATOM     50  N   ALA A   7      22.088 -16.621  -2.974  1.00  0.00    -0.197 N 
ATOM     51  CA  ALA A   7      23.085 -17.617  -3.356  1.00  0.00    +0.173 C 
ATOM     52  C   ALA A   7      22.989 -18.852  -2.474  1.00  0.00    +0.262 C 
ATOM     53  O   ALA A   7      22.383 -19.850  -2.862  1.00  0.00    -0.271 OA
ATOM     54  CB  ALA A   7      24.489 -17.039  -3.267  1.00  0.00    +0.033 C 
ATOM     55  N   LEU A   8      23.585 -18.785  -1.287  1.00  0.00    -0.196 N 
ATOM     56  CA  LEU A   8      23.024 -17.990  -0.198  1.00  0.00    +0.173 C 
ATOM     57  C   LEU A   8      23.115 -16.506  -0.507  1.00  0.00    +0.262 C 
ATOM     58  O   LEU A   8      24.004 -16.074  -1.240  1.00  0.00    -0.271 OA
ATOM     59  CB  LEU A   8      23.746 -18.283   1.108  1.00  0.00    +0.031 C 
ATOM     60  CG  LEU A   8      23.107 -19.343   2.008  1.00  0.00    +0.002 C 
ATOM     61  CD1 LEU A   8      23.655 -20.723   1.669  1.00  0.00    +0.000 C 
ATOM     62  CD2 LEU A   8      21.649 -19.569   1.619  1.00  0.00    +0.000 C 
ATOM     63  N   LEU A   9      22.197 -15.723   0.054  1.00  0.00    -0.196 N 
ATOM     64  CA  LEU A   9      22.460 -14.312   0.318  1.00  0.00    +0.173 C 
ATOM     65  C   LEU A   9      23.232 -14.140   1.617  1.00  0.00    +0.262 C 
ATOM     66  O   LEU A   9      23.612 -15.121   2.252  1.00  0.00    -0.271 OA
ATOM     67  CB  LEU A   9      21.161 -13.526   0.393  1.00  0.00    +0.035 C 
ATOM     68  CG  LEU A   9      20.864 -12.603  -0.791  1.00  0.00    +0.052 C 
ATOM     69  CD1 LEU A   9      19.370 -12.319  -0.878  1.00  0.00    +0.096 C 
ATOM     70  CD2 LEU A   9      21.035 -13.350  -2.110  1.00  0.00    +0.146 C 
ATOM     71  N   GLN A  10      23.464 -12.891   2.012  1.00  0.00    -0.196 N 
ATOM     72  CA  GLN A  10      24.817 -12.423   2.296  1.00  0.00    +0.173 C 
ATOM     73  C   GLN A  10      25.304 -12.943   3.640  1.00  0.00    +0.262 C 
ATOM     74  O   GLN A  10      24.580 -12.883   4.634  1.00  0.00    -0.271 OA
ATOM     75  CB  GLN A  10      24.878 -10.904   2.288  1.00  0.00    +0.041 C 
ATOM     76  CG  GLN A  10      24.858 -10.299   0.894  1.00  0.00    +0.091 C 
ATOM     77  CD  GLN A  10      26.213 -10.361   0.206  1.00  0.00    +0.261 C 
ATOM     78  OE1 GLN A  10      27.198 -10.843   0.782  1.00  0.00    -0.272 OA
ATOM     79  NE2 GLN A  10      26.273  -9.874  -1.030  1.00  0.00    -0.088 N 
ATOM     80  N   VAL A  11      26.530 -13.453   3.672  1.00  0.00    -0.196 N 
ATOM     81  CA  VAL A  11      27.405 -13.259   4.825  1.00  0.00    +0.173 C 
ATOM     82  C   VAL A  11      28.654 -12.502   4.401  1.00  0.00    +0.262 C 
ATOM     83  O   VAL A  11      29.380 -12.942   3.510  1.00  0.00    -0.271 OA
ATOM     84  CB  VAL A  11      27.804 -14.579   5.464  1.00  0.00    +0.029 C 
ATOM     85  CG1 VAL A  11      29.278 -14.560   5.865  1.00  0.00    +0.002 C 
ATOM     86  CG2 VAL A  11      26.976 -14.833   6.721  1.00  0.00    +0.002 C 
ATOM     87  N   PHE A  12      28.907 -11.363   5.039  1.00  0.00    -0.196 N 
ATOM     88  CA  PHE A  12      29.967 -11.269   6.037  1.00  0.00    +0.177 C 
ATOM     89  C   PHE A  12      29.392 -11.347   7.443  1.00  0.00    +0.262 C 
ATOM     90  O   PHE A  12      30.108 -11.653   8.395  1.00  0.00    -0.271 OA
ATOM     91  CB  PHE A  12      30.748  -9.974   5.880  1.00  0.00    +0.057 C 
ATOM     92  CG  PHE A  12      30.458  -8.959   6.944  1.00  0.00    -0.020 A 
ATOM     93  CD1 PHE A  12      29.225  -8.317   6.975  1.00  0.00    -0.004 A 
ATOM     94  CE1 PHE A  12      28.956  -7.375   7.961  1.00  0.00    -0.000 A 
ATOM     95  CD2 PHE A  12      31.422  -8.658   7.901  1.00  0.00    -0.004 A 
ATOM     96  CE2 PHE A  12      31.153  -7.718   8.887  1.00  0.00    -0.000 A 
ATOM     97  CZ  PHE A  12      29.920  -7.075   8.917  1.00  0.00    -0.000 A 
ATOM     98  N   ALA A  13      28.098 -11.068   7.574  1.00  0.00    -0.196 N 
ATOM     99  CA  ALA A  13      27.600 -10.282   8.698  1.00  0.00    +0.173 C 
ATOM    100  C   ALA A  13      27.971 -10.927  10.023  1.00  0.00    +0.262 C 
ATOM    101  O   ALA A  13      27.886 -12.144  10.171  1.00  0.00    -0.271 OA
ATOM    102  CB  ALA A  13      26.090 -10.121   8.617  1.00  0.00    +0.033 C 
ATOM    103  N   GLY A  14      28.383 -10.110  10.989  1.00  0.00    -0.194 N 
ATOM    104  CA  GLY A  14      27.789 -10.147  12.322  1.00  0.00    +0.201 C 
ATOM    105  C   GLY A  14      28.238  -8.952  13.149  1.00  0.00    +0.264 C 
ATOM    106  O   GLY A  14      28.785  -7.992  12.610  1.00  0.00    -0.271 OA
ATOM    107  N   SER A  15      28.008  -9.011  14.457  1.00  0.00    -0.194 N 
ATOM    108  CA  SER A  15      28.588  -8.035  15.375  1.00  0.00    +0.205 C 
ATOM    109  C   SER A  15      30.060  -8.317  15.625  1.00  0.00    +0.264 C 
ATOM    110  O   SER A  15      30.485  -9.471  15.612  1.00  0.00    -0.271 OA
ATOM    111  CB  SER A  15      27.840  -8.034  16.698  1.00  0.00    +0.213 C 
ATOM    112  OG  SER A  15      28.308  -9.075  17.540  1.00  0.00    -0.218 OA
ATOM    113  N   SER A  16      30.838  -7.264  15.853  1.00  0.00    -0.194 N 
ATOM    114  CA  SER A  16      32.138  -7.406  16.505  1.00  0.00    +0.205 C 
ATOM    115  C   SER A  16      32.011  -8.134  17.834  1.00  0.00    +0.264 C 
ATOM    116  O   SER A  16      31.010  -7.988  18.532  1.00  0.00    -0.271 OA
ATOM    117  CB  SER A  16      32.777  -6.045  16.730  1.00  0.00    +0.213 C 
ATOM    118  OG  SER A  16      33.182  -5.470  15.501  1.00  0.00    -0.218 OA
ATOM    119  N   ASP A  17      33.027  -8.919  18.181  1.00  0.00    -0.196 N 
ATOM    120  CA  ASP A  17      32.845 -10.030  19.111  1.00  0.00    +0.184 C 
ATOM    121  C   ASP A  17      33.355  -9.672  20.497  1.00  0.00    +0.262 C 
ATOM    122  O   ASP A  17      34.345  -8.955  20.632  1.00  0.00    -0.271 OA
ATOM    123  CB  ASP A  17      33.559 -11.276  18.613  1.00  0.00    +0.145 C 
ATOM    124  CG  ASP A  17      33.039 -11.766  17.272  1.00  0.00    +0.367 C 
ATOM    125  OD1 ASP A  17      32.340 -12.802  17.230  1.00  0.00    -0.246 OA
ATOM    126  OD2 ASP A  17      33.330 -11.109  16.250  1.00  0.00    -0.246 OA
ATOM    127  N   TRP A  18      32.681 -10.172  21.528  1.00  0.00    -0.196 N 
ATOM    128  CA  TRP A  18      33.351 -10.933  22.579  1.00  0.00    +0.177 C 
ATOM    129  C   TRP A  18      32.717 -12.304  22.743  1.00  0.00    +0.262 C 
ATOM    130  O   TRP A  18      31.597 -12.534  22.290  1.00  0.00    -0.271 OA
ATOM    131  CB  TRP A  18      33.302 -10.188  23.902  1.00  0.00    +0.059 C 
ATOM    132  CG  TRP A  18      31.927  -9.743  24.305  1.00  0.00    +0.000 C 
ATOM    133  CD1 TRP A  18      31.060 -10.398  25.139  1.00  0.00    +0.094 C 
ATOM    134  CD2 TRP A  18      31.260  -8.548  23.889  1.00  0.00    +0.011 C 
ATOM    135  NE1 TRP A  18      29.905  -9.648  25.244  1.00  0.00    -0.248 NA
ATOM    136  CE2 TRP A  18      29.997  -8.514  24.492  1.00  0.00    +0.063 C 
ATOM    137  CE3 TRP A  18      31.612  -7.482  23.053  1.00  0.00    +0.001 C 
ATOM    138  CZ2 TRP A  18      29.136  -7.438  24.248  1.00  0.00    +0.072 C 
ATOM    139  CZ3 TRP A  18      30.712  -6.432  22.842  1.00  0.00    -0.004 C 
ATOM    140  CH2 TRP A  18      29.536  -6.397  23.402  1.00  0.00    -0.020 C 
ATOM    141  N   ILE A  19      33.432 -13.218  23.394  1.00  0.00    -0.196 N 
ATOM    142  CA  ILE A  19      32.790 -14.307  24.125  1.00  0.00    +0.173 C 
ATOM    143  C   ILE A  19      32.896 -14.049  25.620  1.00  0.00    +0.262 C 
ATOM    144  O   ILE A  19      33.994 -14.010  26.171  1.00  0.00    -0.271 OA
ATOM    145  CB  ILE A  19      33.411 -15.655  23.797  1.00  0.00    +0.029 C 
ATOM    146  CG1 ILE A  19      33.149 -16.030  22.341  1.00  0.00    +0.002 C 
ATOM    147  CG2 ILE A  19      32.842 -16.738  24.711  1.00  0.00    +0.002 C 
ATOM    148  CD1 ILE A  19      33.992 -17.191  21.842  1.00  0.00    +0.000 C 
ATOM    149  N   ARG A  20      31.753 -13.876  26.277  1.00  0.00    -0.196 N 
ATOM    150  CA  ARG A  20      31.577 -14.367  27.640  1.00  0.00    +0.173 C 
ATOM    151  C   ARG A  20      31.461 -15.883  27.661  1.00  0.00    +0.262 C 
ATOM    152  O   ARG A  20      31.761 -16.519  28.670  1.00  0.00    -0.271 OA
ATOM    153  CB  ARG A  20      30.343 -13.756  28.283  1.00  0.00    +0.033 C 
ATOM    154  CG  ARG A  20      29.034 -14.221  27.666  1.00  0.00    +0.029 C 
ATOM    155  CD  ARG A  20      27.846 -13.912  28.562  1.00  0.00    +0.129 C 
ATOM    156  NE  ARG A  20      26.741 -13.324  27.808  1.00  0.00    -0.234 NA
ATOM    157  CZ  ARG A  20      26.450 -12.027  27.776  1.00  0.00    +0.284 C 
ATOM    158  NH1 ARG A  20      27.182 -11.150  28.457  1.00  0.00    -0.104 N 
ATOM    159  NH2 ARG A  20      25.415 -11.602  27.055  1.00  0.00    -0.104 N 
ATOM    160  N   ARG A  21      31.026 -16.462  26.546  1.00  0.00    -0.194 N 
ATOM    161  CA  ARG A  21      30.031 -17.531  26.582  1.00  0.00    +0.198 C 
ATOM    162  C   ARG A  21      30.700 -18.896  26.613  1.00  0.00    +0.384 C 
ATOM    163  O   ARG A  21      30.146 -19.873  26.114  1.00  0.00    -0.244 OA
ATOM    164  CB  ARG A  21      29.102 -17.447  25.382  1.00  0.00    +0.035 C 
ATOM    165  CG  ARG A  21      28.103 -16.304  25.458  1.00  0.00    +0.029 C 
ATOM    166  CD  ARG A  21      26.726 -16.724  24.970  1.00  0.00    +0.129 C 
ATOM    167  NE  ARG A  21      26.372 -18.058  25.445  1.00  0.00    -0.234 NA
ATOM    168  CZ  ARG A  21      25.884 -18.330  26.653  1.00  0.00    +0.284 C 
ATOM    169  NH1 ARG A  21      25.474 -19.558  26.955  1.00  0.00    -0.104 N 
ATOM    170  NH2 ARG A  21      25.807 -17.364  27.563  1.00  0.00    -0.104 N 
ATOM    171  OXT ARG A  21      31.803 -19.039  27.136  1.00  0.00    -0.244 OA
ATOM    172  H   MET A   1      16.426  -1.811   2.504  1.00  0.00    +0.000 HD
ATOM    173  H   MET A   1      16.338  -0.924   3.912  1.00  0.00    +0.000 HD
ATOM    174  H   LYS A   2      18.866  -4.528   3.647  1.00  0.00    +0.000 HD
ATOM    175  H   LYS A   2      17.753  -8.766  -2.083  1.00  0.00    +0.000 HD
ATOM    176  H   GLN A   3      15.585  -7.257   2.213  1.00  0.00    +0.000 HD
ATOM    177  H   GLN A   3      15.137 -13.153   4.995  1.00  0.00    +0.000 HD
ATOM    178  H   GLN A   3      15.576 -13.209   3.347  1.00  0.00    +0.000 HD
ATOM    179  H   ALA A   4      17.482 -11.338   3.159  1.00  0.00    +0.000 HD
ATOM    180  H   PHE A   6      17.950 -16.007  -1.842  1.00  0.00    +0.000 HD
ATOM    181  H   ALA A   7      22.371 -15.824  -2.471  1.00  0.00    +0.000 HD
ATOM    182  H   LEU A   8      24.423 -19.281  -1.139  1.00  0.00    +0.000 HD
ATOM    183  H   LEU A   9      21.321 -16.102   0.295  1.00  0.00    +0.000 HD
ATOM    184  H   GLN A  10      22.707 -12.269   2.114  1.00  0.00    +0.000 HD
ATOM    185  H   GLN A  10      25.465  -9.499  -1.451  1.00  0.00    +0.000 HD
ATOM    186  H   GLN A  10      27.124  -9.889  -1.524  1.00  0.00    +0.000 HD
ATOM    187  H   VAL A  11      26.856 -13.974   2.902  1.00  0.00    +0.000 HD
ATOM    188  H   PHE A  12      28.367 -10.566   4.833  1.00  0.00    +0.000 HD
ATOM    189  H   ALA A  13      27.463 -11.399   6.899  1.00  0.00    +0.000 HD
ATOM    190  H   GLY A  14      29.104  -9.466  10.800  1.00  0.00    +0.000 HD
ATOM    191  H   SER A  15      27.435  -9.728  14.814  1.00  0.00    +0.000 HD
ATOM    192  H   SER A  15      29.252  -8.943  17.723  1.00  0.00    +0.000 HD
ATOM    193  H   SER A  16      30.533  -6.369  15.577  1.00  0.00    +0.000 HD
ATOM    194  H   SER A  16      33.835  -6.045  15.074  1.00  0.00    +0.000 HD
ATOM    195  H   ASP A  17      33.920  -8.747  17.804  1.00  0.00    +0.000 HD
ATOM    196  H   ASP A  17      33.857 -10.338  16.322  1.00  0.00    +0.000 HD
ATOM    197  H   TRP A  18      31.709 -10.025  21.585  1.00  0.00    +0.000 HD
ATOM    198  H   ILE A  19      34.414 -13.159  23.381  1.00  0.00    +0.000 HD
ATOM    199  H   ARG A  20      31.010 -13.405  25.835  1.00  0.00    +0.000 HD
ATOM    200  H   ARG A  20      27.949 -11.459  28.992  1.00  0.00    +0.000 HD
ATOM    201  H   ARG A  20      26.957 -10.192  28.426  1.00  0.00    +0.000 HD
ATOM    202  H   ARG A  20      24.870 -12.247  26.549  1.00  0.00    +0.000 HD
ATOM    203  H   ARG A  20      25.195 -10.643  27.028  1.00  0.00    +0.000 HD
ATOM    204  H   ARG A  21      31.383 -16.165  25.677  1.00  0.00    +0.000 HD
ATOM    205  H   ARG A  21      25.115 -19.750  27.852  1.00  0.00    +0.000 HD
ATOM    206  H   ARG A  21      25.529 -20.275  26.283  1.00  0.00    +0.000 HD
ATOM    207  H   ARG A  21      25.448 -17.559  28.458  1.00  0.00    +0.000 HD
ATOM    208  H   ARG A  21      26.110 -16.454  27.342  1.00  0.00    +0.000 HD
ATOM    209  H   ARG A  21      32.238 -18.304  27.521  1.00  0.00    +0.000 HD
ENDROOT
TORSDOF 0
