REMARK SMILES CC[C@H](C)[C@H](NC(=O)[C@H](C)NC(=O)[C@H](CC(=O)O)NC(=O)[C@H](CO)NC(=O)[C@H](CO)NC(=O)CNC(=O)[C@H](C)NC(=O)[C@H](Cc1ccccc1)NC(=O)[C@H](Cc1ccccc1)NC(=O)[C@@H](NC(=O)[C@H](CC(C)C)NC(=O)[C@H](CC(C)C)NC(=O)[C@H](C)NC(=O)[C@H](CC(N)=O)NC(=O)[C@@H](NC(=O)[C@H](C)NC(=O)[C@H](CCC(N)=O)NC(=O)[C@H](CCCCN)NC(=O)[C@@H](N)CCSC)C(C)C)C(C)C)C(=O)N[C@@H](CCCN=C(N)N)C(=O)N[C@H](C=O)CCCN=C(N)N
REMARK SMILES IDX 52 1 53 2 51 3 54 5 62 6 63 7 64 8 65 10 66 11 67 12 68 13
REMARK SMILES IDX 69 15 74 16 75 17 76 18 77 20 82 21 83 22 84 23 85 25 86 26
REMARK SMILES IDX 87 27 88 28 89 29 90 31 95 32 96 33 97 34 98 36 99 37 100 38
REMARK SMILES IDX 101 39 102 41 103 42 104 43 105 44 106 45 107 47 113 48
REMARK SMILES IDX 114 49 115 50 116 52 122 53 123 54 124 55 125 57 126 58
REMARK SMILES IDX 127 61 128 62 129 63 130 64 117 65 118 66 119 67 120 68
REMARK SMILES IDX 121 69 108 72 109 73 110 74 111 75 112 76 131 79 132 80
REMARK SMILES IDX 133 81 91 82 92 83 94 84 93 85 78 88 79 89 81 90 80 91 70 92
REMARK SMILES IDX 71 93 73 94 72 95 134 96 135 97 136 98 55 99 56 100 57 101
REMARK SMILES IDX 61 102 58 103 60 104 59 105 43 106 41 107 42 108 40 109
REMARK SMILES IDX 38 111 39 112 36 113 37 114 35 115 34 117 32 118 33 119
REMARK SMILES IDX 31 120 28 122 26 123 25 124 27 125 22 127 23 128 24 129
REMARK SMILES IDX 20 131 21 132 19 133 14 135 12 136 13 137 11 138 9 140
REMARK SMILES IDX 10 141 7 142 6 143 8 144 5 146 137 147 139 148 138 149
REMARK SMILES IDX 140 151 141 152 142 153 143 154 144 155 145 156 147 157
REMARK SMILES IDX 146 158 148 163 149 164 150 165 151 167 152 168 153 169
REMARK SMILES IDX 154 170 155 171 156 172 157 173 158 174 159 175 160 176
REMARK SMILES IDX 3 181 4 182 2 183 1 184 15 185 16 186 17 187 18 188 29 190
REMARK SMILES IDX 30 191 44 193 45 194 46 195 50 196 47 197 49 198 48 199
REMARK H PARENT 51 4 62 9 66 14 74 19 82 24 87 30 95 35 99 40 104 46 113 51
REMARK H PARENT 122 56 126 59 126 60 121 70 121 71 111 77 111 78 93 86 93 87
REMARK H PARENT 40 110 35 116 31 121 25 126 24 130 19 134 11 139 6 145 139 150
REMARK H PARENT 147 159 147 160 146 161 146 162 150 166 159 177 159 178
REMARK H PARENT 160 179 160 180 18 189 30 192
ROOT
ATOM      1  C   UNL     1       1.768   1.991   1.676  1.00  0.00    +0.243 C 
ATOM      2  O   UNL     1       2.396   2.585   2.554  1.00  0.00    -0.273 OA
ATOM      3  N   UNL     1       0.456   1.719   1.863  1.00  0.00    -0.342 N 
ATOM      4  H   UNL     1      -0.009   1.199   1.169  1.00  0.00    +0.164 HD
ENDROOT
BRANCH   1   5
ATOM      5  C   UNL     1       2.463   1.541   0.397  1.00  0.00    +0.175 C 
BRANCH   5   6
ATOM      6  N   UNL     1       2.031   0.202   0.016  1.00  0.00    -0.342 N 
ATOM      7  C   UNL     1       2.358  -0.846   0.801  1.00  0.00    +0.243 C 
ATOM      8  O   UNL     1       2.961  -0.738   1.871  1.00  0.00    -0.273 OA
ATOM      9  H   UNL     1       1.506   0.064  -0.805  1.00  0.00    +0.164 HD
BRANCH   7  10
ATOM     10  C   UNL     1       1.870  -2.211   0.320  1.00  0.00    +0.174 C 
BRANCH  10  11
ATOM     11  N   UNL     1       0.554  -2.075  -0.296  1.00  0.00    -0.342 N 
ATOM     12  C   UNL     1      -0.551  -1.664   0.473  1.00  0.00    +0.243 C 
ATOM     13  O   UNL     1      -0.475  -1.438   1.682  1.00  0.00    -0.273 OA
ATOM     14  H   UNL     1       0.439  -2.272  -1.254  1.00  0.00    +0.164 HD
BRANCH  12  15
ATOM     15  C   UNL     1      -1.888  -1.556  -0.252  1.00  0.00    +0.171 C 
BRANCH  15  16
ATOM     16  N   UNL     1      -1.720  -0.944  -1.565  1.00  0.00    -0.343 N 
ATOM     17  C   UNL     1      -1.160   0.377  -1.613  1.00  0.00    +0.243 C 
ATOM     18  O   UNL     1      -0.858   1.081  -0.646  1.00  0.00    -0.273 OA
ATOM     19  H   UNL     1      -1.981  -1.419  -2.387  1.00  0.00    +0.164 HD
BRANCH  17  20
ATOM     20  C   UNL     1      -1.041   0.922  -3.032  1.00  0.00    +0.171 C 
BRANCH  20  21
ATOM     21  N   UNL     1      -0.505  -0.091  -3.935  1.00  0.00    -0.343 N 
ATOM     22  C   UNL     1       0.810  -0.580  -3.755  1.00  0.00    +0.242 C 
ATOM     23  O   UNL     1       1.574  -0.174  -2.875  1.00  0.00    -0.273 OA
ATOM     24  H   UNL     1      -1.060  -0.435  -4.672  1.00  0.00    +0.164 HD
BRANCH  22  25
ATOM     25  C   UNL     1       1.258  -1.663  -4.732  1.00  0.00    +0.168 C 
ATOM     26  C   UNL     1       1.753  -1.032  -6.031  1.00  0.00    +0.041 C 
BRANCH  25  27
ATOM     27  N   UNL     1       0.176  -2.606  -5.003  1.00  0.00    -0.343 N 
ATOM     28  C   UNL     1      -0.307  -3.347  -4.036  1.00  0.00    +0.243 C 
ATOM     29  O   UNL     1       0.093  -3.317  -2.871  1.00  0.00    -0.273 OA
ATOM     30  H   UNL     1      -0.191  -2.685  -5.913  1.00  0.00    +0.164 HD
BRANCH  28  31
ATOM     31  C   UNL     1      -1.429  -4.297  -4.446  1.00  0.00    +0.180 C 
BRANCH  31  32
ATOM     32  N   UNL     1      -2.365  -3.657  -5.363  1.00  0.00    -0.342 N 
ATOM     33  C   UNL     1      -2.992  -2.664  -4.927  1.00  0.00    +0.243 C 
ATOM     34  O   UNL     1      -2.922  -2.187  -3.792  1.00  0.00    -0.273 OA
ATOM     35  H   UNL     1      -2.498  -3.989  -6.280  1.00  0.00    +0.164 HD
BRANCH  33  36
ATOM     36  C   UNL     1      -3.940  -2.067  -5.964  1.00  0.00    +0.174 C 
BRANCH  36  37
ATOM     37  N   UNL     1      -3.287  -2.029  -7.267  1.00  0.00    -0.342 N 
ATOM     38  C   UNL     1      -2.225  -1.224  -7.433  1.00  0.00    +0.242 C 
ATOM     39  O   UNL     1      -1.718  -0.527  -6.550  1.00  0.00    -0.273 OA
ATOM     40  H   UNL     1      -3.618  -2.583  -8.011  1.00  0.00    +0.164 HD
BRANCH  38  41
ATOM     41  C   UNL     1      -1.629  -1.253  -8.837  1.00  0.00    +0.168 C 
ATOM     42  C   UNL     1      -2.413  -0.327  -9.764  1.00  0.00    +0.041 C 
BRANCH  41  43
ATOM     43  N   UNL     1      -1.610  -2.612  -9.372  1.00  0.00    -0.343 N 
ATOM     44  C   UNL     1      -0.874  -3.466  -8.823  1.00  0.00    +0.243 C 
ATOM     45  O   UNL     1      -0.171  -3.293  -7.825  1.00  0.00    -0.273 OA
ATOM     46  H   UNL     1      -2.165  -2.853 -10.149  1.00  0.00    +0.164 HD
BRANCH  44  47
ATOM     47  C   UNL     1      -0.925  -4.829  -9.509  1.00  0.00    +0.171 C 
BRANCH  47  48
ATOM     48  N   UNL     1      -2.272  -5.130  -9.981  1.00  0.00    -0.343 N 
ATOM     49  C   UNL     1      -3.243  -5.300  -9.071  1.00  0.00    +0.243 C 
ATOM     50  O   UNL     1      -3.103  -5.139  -7.857  1.00  0.00    -0.273 OA
ATOM     51  H   UNL     1      -2.464  -5.207 -10.944  1.00  0.00    +0.164 HD
BRANCH  49  52
ATOM     52  C   UNL     1      -4.603  -5.676  -9.651  1.00  0.00    +0.171 C 
BRANCH  52  53
ATOM     53  N   UNL     1      -4.833  -5.009 -10.930  1.00  0.00    -0.343 N 
ATOM     54  C   UNL     1      -4.882  -3.642 -11.109  1.00  0.00    +0.237 C 
ATOM     55  O   UNL     1      -4.760  -2.954 -10.095  1.00  0.00    -0.273 OA
ATOM     56  H   UNL     1      -4.963  -5.577 -11.723  1.00  0.00    +0.164 HD
BRANCH  54  57
ATOM     57  C   UNL     1      -5.179  -2.989 -12.455  1.00  0.00    +0.142 C 
BRANCH  57  58
ATOM     58  N   UNL     1      -4.336  -3.554 -13.506  1.00  0.00    -0.320 NA
ATOM     59  H   UNL     1      -4.552  -3.103 -14.395  1.00  0.00    +0.119 HD
ATOM     60  H   UNL     1      -4.512  -4.556 -13.582  1.00  0.00    +0.119 HD
ENDBRANCH  57  58
BRANCH  57  61
ATOM     61  C   UNL     1      -6.659  -3.160 -12.803  1.00  0.00    +0.039 C 
BRANCH  61  62
ATOM     62  C   UNL     1      -7.389  -1.847 -13.036  1.00  0.00    +0.071 C 
BRANCH  62  63
ATOM     63  S   UNL     1      -9.160  -2.091 -13.450  1.00  0.00    -0.165 SA
ATOM     64  C   UNL     1      -9.821  -0.462 -13.001  1.00  0.00    +0.085 C 
ENDBRANCH  62  63
ENDBRANCH  61  62
ENDBRANCH  57  61
ENDBRANCH  54  57
ENDBRANCH  52  53
BRANCH  52  65
ATOM     65  C   UNL     1      -4.703  -7.194  -9.812  1.00  0.00    +0.035 C 
BRANCH  65  66
ATOM     66  C   UNL     1      -6.129  -7.724  -9.818  1.00  0.00    +0.004 C 
BRANCH  66  67
ATOM     67  C   UNL     1      -6.160  -9.246  -9.875  1.00  0.00    +0.015 C 
BRANCH  67  68
ATOM     68  C   UNL     1      -7.585  -9.774  -9.973  1.00  0.00    +0.077 C 
BRANCH  68  69
ATOM     69  N   UNL     1      -7.616 -11.261 -10.109  1.00  0.00    -0.330 NA
ATOM     70  H   UNL     1      -7.188 -11.687  -9.287  1.00  0.00    +0.118 HD
ATOM     71  H   UNL     1      -7.098 -11.537 -10.943  1.00  0.00    +0.118 HD
ENDBRANCH  68  69
ENDBRANCH  67  68
ENDBRANCH  66  67
ENDBRANCH  65  66
ENDBRANCH  52  65
ENDBRANCH  49  52
ENDBRANCH  47  48
BRANCH  47  72
ATOM     72  C   UNL     1       0.073  -4.871 -10.667  1.00  0.00    +0.045 C 
BRANCH  72  73
ATOM     73  C   UNL     1       0.339  -6.272 -11.199  1.00  0.00    +0.102 C 
BRANCH  73  74
ATOM     74  C   UNL     1       1.346  -6.289 -12.333  1.00  0.00    +0.217 C 
ATOM     75  N   UNL     1       1.800  -7.480 -12.707  1.00  0.00    -0.370 N 
ATOM     76  O   UNL     1       1.714  -5.238 -12.870  1.00  0.00    -0.275 OA
ATOM     77  H   UNL     1       2.455  -7.550 -13.438  1.00  0.00    +0.159 HD
ATOM     78  H   UNL     1       1.481  -8.293 -12.253  1.00  0.00    +0.159 HD
ENDBRANCH  73  74
ENDBRANCH  72  73
ENDBRANCH  47  72
ENDBRANCH  44  47
ENDBRANCH  41  43
ENDBRANCH  38  41
ENDBRANCH  36  37
BRANCH  36  79
ATOM     79  C   UNL     1      -5.255  -2.877  -6.011  1.00  0.00    +0.015 C 
ATOM     80  C   UNL     1      -5.865  -3.000  -4.616  1.00  0.00    +0.010 C 
ATOM     81  C   UNL     1      -6.246  -2.228  -6.976  1.00  0.00    +0.010 C 
ENDBRANCH  36  79
ENDBRANCH  33  36
ENDBRANCH  31  32
BRANCH  31  82
ATOM     82  C   UNL     1      -0.848  -5.567  -5.071  1.00  0.00    +0.134 C 
BRANCH  82  83
ATOM     83  C   UNL     1      -1.786  -6.753  -4.964  1.00  0.00    +0.220 C 
ATOM     84  O   UNL     1      -2.643  -6.804  -4.078  1.00  0.00    -0.275 OA
ATOM     85  N   UNL     1      -1.632  -7.715  -5.866  1.00  0.00    -0.370 N 
ATOM     86  H   UNL     1      -0.935  -7.635  -6.557  1.00  0.00    +0.159 HD
ATOM     87  H   UNL     1      -2.215  -8.508  -5.844  1.00  0.00    +0.159 HD
ENDBRANCH  82  83
ENDBRANCH  31  82
ENDBRANCH  28  31
ENDBRANCH  25  27
ENDBRANCH  22  25
ENDBRANCH  20  21
BRANCH  20  88
ATOM     88  C   UNL     1      -2.409   1.406  -3.522  1.00  0.00    +0.038 C 
BRANCH  88  89
ATOM     89  C   UNL     1      -2.432   2.754  -4.244  1.00  0.00    -0.015 C 
ATOM     90  C   UNL     1      -2.957   3.847  -3.319  1.00  0.00    +0.007 C 
ATOM     91  C   UNL     1      -3.281   2.663  -5.508  1.00  0.00    +0.007 C 
ENDBRANCH  88  89
ENDBRANCH  20  88
ENDBRANCH  17  20
ENDBRANCH  15  16
BRANCH  15  92
ATOM     92  C   UNL     1      -2.525  -2.942  -0.383  1.00  0.00    +0.038 C 
BRANCH  92  93
ATOM     93  C   UNL     1      -4.044  -2.977  -0.555  1.00  0.00    -0.015 C 
ATOM     94  C   UNL     1      -4.739  -2.699   0.773  1.00  0.00    +0.007 C 
ATOM     95  C   UNL     1      -4.483  -4.322  -1.123  1.00  0.00    +0.007 C 
ENDBRANCH  92  93
ENDBRANCH  15  92
ENDBRANCH  12  15
ENDBRANCH  10  11
BRANCH  10  96
ATOM     96  C   UNL     1       2.893  -2.829  -0.658  1.00  0.00    +0.015 C 
ATOM     97  C   UNL     1       4.298  -2.802  -0.059  1.00  0.00    +0.010 C 
ATOM     98  C   UNL     1       2.490  -4.258  -1.018  1.00  0.00    +0.010 C 
ENDBRANCH  10  96
ENDBRANCH   7  10
ENDBRANCH   5   6
BRANCH   5  99
ATOM     99  C   UNL     1       2.183   2.539  -0.732  1.00  0.00    +0.070 C 
BRANCH  99 100
ATOM    100  C   UNL     1       3.249   2.568  -1.794  1.00  0.00    -0.045 A 
ATOM    101  C   UNL     1       4.457   3.216  -1.570  1.00  0.00    +0.004 A 
ATOM    102  C   UNL     1       3.041   1.946  -3.019  1.00  0.00    +0.004 A 
ATOM    103  C   UNL     1       5.445   3.244  -2.552  1.00  0.00    +0.000 A 
ATOM    104  C   UNL     1       4.024   1.969  -4.005  1.00  0.00    +0.000 A 
ATOM    105  C   UNL     1       5.224   2.620  -3.770  1.00  0.00    +0.000 A 
ENDBRANCH  99 100
ENDBRANCH   5  99
ENDBRANCH   1   5
BRANCH   3 106
ATOM    106  C   UNL     1      -0.314   2.146   3.025  1.00  0.00    +0.175 C 
BRANCH 106 107
ATOM    107  C   UNL     1       0.029   1.297   4.243  1.00  0.00    +0.243 C 
ATOM    108  O   UNL     1      -0.041   1.773   5.378  1.00  0.00    -0.273 OA
ATOM    109  N   UNL     1       0.282  -0.016   3.934  1.00  0.00    -0.343 N 
ATOM    110  H   UNL     1       0.245  -0.342   3.006  1.00  0.00    +0.164 HD
BRANCH 109 111
ATOM    111  C   UNL     1       0.609  -0.909   5.043  1.00  0.00    +0.168 C 
ATOM    112  C   UNL     1       0.780  -2.341   4.541  1.00  0.00    +0.041 C 
BRANCH 111 113
ATOM    113  C   UNL     1       1.873  -0.448   5.765  1.00  0.00    +0.242 C 
ATOM    114  O   UNL     1       1.967  -0.549   6.990  1.00  0.00    -0.273 OA
ATOM    115  N   UNL     1       2.811  -0.029   4.972  1.00  0.00    -0.345 N 
ATOM    116  H   UNL     1       2.693  -0.020   3.995  1.00  0.00    +0.164 HD
BRANCH 115 117
ATOM    117  C   UNL     1       4.044   0.427   5.592  1.00  0.00    +0.216 C 
BRANCH 117 118
ATOM    118  C   UNL     1       3.909   1.780   6.265  1.00  0.00    +0.240 C 
ATOM    119  O   UNL     1       4.749   2.160   7.083  1.00  0.00    -0.273 OA
ATOM    120  N   UNL     1       2.850   2.635   5.804  1.00  0.00    -0.341 N 
ATOM    121  H   UNL     1       2.230   2.312   5.111  1.00  0.00    +0.164 HD
BRANCH 120 122
ATOM    122  C   UNL     1       2.683   3.978   6.352  1.00  0.00    +0.197 C 
BRANCH 122 123
ATOM    123  C   UNL     1       2.155   3.929   7.782  1.00  0.00    +0.245 C 
ATOM    124  N   UNL     1       1.470   2.741   8.090  1.00  0.00    -0.340 N 
ATOM    125  O   UNL     1       2.330   4.881   8.546  1.00  0.00    -0.273 OA
ATOM    126  H   UNL     1       1.360   2.007   7.443  1.00  0.00    +0.164 HD
BRANCH 124 127
ATOM    127  C   UNL     1       0.935   2.682   9.447  1.00  0.00    +0.197 C 
BRANCH 127 128
ATOM    128  C   UNL     1       0.136   1.395   9.653  1.00  0.00    +0.191 C 
BRANCH 128 129
ATOM    129  O   UNL     1       1.004   0.287   9.822  1.00  0.00    -0.394 OA
ATOM    130  H   UNL     1       1.553   0.182   9.029  1.00  0.00    +0.210 HD
ENDBRANCH 128 129
ENDBRANCH 127 128
BRANCH 127 131
ATOM    131  C   UNL     1       2.048   2.772  10.485  1.00  0.00    +0.245 C 
ATOM    132  O   UNL     1       1.901   3.451  11.503  1.00  0.00    -0.273 OA
ATOM    133  N   UNL     1       3.166   2.067  10.171  1.00  0.00    -0.342 N 
ATOM    134  H   UNL     1       3.246   1.540   9.343  1.00  0.00    +0.164 HD
BRANCH 133 135
ATOM    135  C   UNL     1       4.240   2.151  11.156  1.00  0.00    +0.182 C 
BRANCH 135 136
ATOM    136  C   UNL     1       4.870   3.542  11.165  1.00  0.00    +0.243 C 
ATOM    137  O   UNL     1       5.269   4.041  12.219  1.00  0.00    -0.273 OA
ATOM    138  N   UNL     1       4.942   4.243   9.986  1.00  0.00    -0.343 N 
ATOM    139  H   UNL     1       4.603   3.835   9.157  1.00  0.00    +0.164 HD
BRANCH 138 140
ATOM    140  C   UNL     1       5.515   5.586   9.946  1.00  0.00    +0.168 C 
ATOM    141  C   UNL     1       5.635   6.070   8.503  1.00  0.00    +0.041 C 
BRANCH 140 142
ATOM    142  C   UNL     1       4.677   6.564  10.764  1.00  0.00    +0.242 C 
ATOM    143  N   UNL     1       3.436   6.355  10.846  1.00  0.00    -0.342 N 
ATOM    144  O   UNL     1       5.214   7.491  11.375  1.00  0.00    -0.273 OA
ATOM    145  H   UNL     1       3.047   5.591  10.361  1.00  0.00    +0.164 HD
BRANCH 143 146
ATOM    146  C   UNL     1       2.560   7.212  11.638  1.00  0.00    +0.174 C 
BRANCH 146 147
ATOM    147  C   UNL     1       2.738   6.901  13.122  1.00  0.00    +0.243 C 
ATOM    148  N   UNL     1       3.024   5.673  13.345  1.00  0.00    -0.343 N 
ATOM    149  O   UNL     1       2.624   7.792  13.967  1.00  0.00    -0.273 OA
ATOM    150  H   UNL     1       3.144   5.011  12.626  1.00  0.00    +0.164 HD
BRANCH 148 151
ATOM    151  C   UNL     1       3.156   5.341  14.760  1.00  0.00    +0.171 C 
BRANCH 151 152
ATOM    152  C   UNL     1       2.991   3.836  14.978  1.00  0.00    +0.037 C 
BRANCH 152 153
ATOM    153  C   UNL     1       2.642   3.455  16.408  1.00  0.00    +0.026 C 
BRANCH 153 154
ATOM    154  C   UNL     1       2.267   1.984  16.524  1.00  0.00    +0.146 C 
BRANCH 154 155
ATOM    155  N   UNL     1       3.448   1.136  16.665  1.00  0.00    -0.254 NA
ATOM    156  C   UNL     1       3.513   0.046  17.424  1.00  0.00    +0.185 C 
ATOM    157  N   UNL     1       4.638  -0.651  17.479  1.00  0.00    -0.370 N 
ATOM    158  N   UNL     1       2.460  -0.353  18.129  1.00  0.00    -0.370 N 
ATOM    159  H   UNL     1       5.422  -0.361  16.959  1.00  0.00    +0.159 HD
ATOM    160  H   UNL     1       4.690  -1.459  18.040  1.00  0.00    +0.159 HD
ATOM    161  H   UNL     1       1.621   0.160  18.093  1.00  0.00    +0.159 HD
ATOM    162  H   UNL     1       2.519  -1.162  18.687  1.00  0.00    +0.159 HD
ENDBRANCH 154 155
ENDBRANCH 153 154
ENDBRANCH 152 153
ENDBRANCH 151 152
BRANCH 151 163
ATOM    163  C   UNL     1       4.502   5.804  15.308  1.00  0.00    +0.243 C 
ATOM    164  O   UNL     1       4.643   6.030  16.512  1.00  0.00    -0.273 OA
ATOM    165  N   UNL     1       5.393   6.116  14.405  1.00  0.00    -0.345 N 
ATOM    166  H   UNL     1       5.253   5.961  13.443  1.00  0.00    +0.164 HD
BRANCH 165 167
ATOM    167  C   UNL     1       6.613   6.713  14.940  1.00  0.00    +0.145 C 
BRANCH 167 168
ATOM    168  C   UNL     1       6.447   8.216  15.136  1.00  0.00    +0.248 C 
ATOM    169  O   UNL     1       6.929   8.775  16.123  1.00  0.00    -0.301 OA
ENDBRANCH 167 168
BRANCH 167 170
ATOM    170  C   UNL     1       7.799   6.433  14.014  1.00  0.00    +0.034 C 
BRANCH 170 171
ATOM    171  C   UNL     1       8.355   5.024  14.134  1.00  0.00    +0.026 C 
BRANCH 171 172
ATOM    172  C   UNL     1       9.579   4.823  13.251  1.00  0.00    +0.146 C 
BRANCH 172 173
ATOM    173  N   UNL     1       9.967   3.417  13.178  1.00  0.00    -0.254 NA
ATOM    174  C   UNL     1      11.050   2.961  12.556  1.00  0.00    +0.185 C 
ATOM    175  N   UNL     1      11.878   3.795  11.937  1.00  0.00    -0.370 N 
ATOM    176  N   UNL     1      11.308   1.661  12.551  1.00  0.00    -0.370 N 
ATOM    177  H   UNL     1      12.677   3.446  11.480  1.00  0.00    +0.159 HD
ATOM    178  H   UNL     1      11.693   4.762  11.936  1.00  0.00    +0.159 HD
ATOM    179  H   UNL     1      12.109   1.320  12.091  1.00  0.00    +0.159 HD
ATOM    180  H   UNL     1      10.699   1.036  13.007  1.00  0.00    +0.159 HD
ENDBRANCH 172 173
ENDBRANCH 171 172
ENDBRANCH 170 171
ENDBRANCH 167 170
ENDBRANCH 165 167
ENDBRANCH 151 163
ENDBRANCH 148 151
ENDBRANCH 146 147
BRANCH 146 181
ATOM    181  C   UNL     1       1.080   7.039  11.229  1.00  0.00    +0.018 C 
ATOM    182  C   UNL     1       0.161   7.796  12.193  1.00  0.00    +0.010 C 
BRANCH 181 183
ATOM    183  C   UNL     1       0.867   7.510   9.785  1.00  0.00    +0.002 C 
ATOM    184  C   UNL     1      -0.555   7.320   9.276  1.00  0.00    +0.004 C 
ENDBRANCH 181 183
ENDBRANCH 146 181
ENDBRANCH 143 146
ENDBRANCH 140 142
ENDBRANCH 138 140
ENDBRANCH 135 136
BRANCH 135 185
ATOM    185  C   UNL     1       5.309   1.092  10.876  1.00  0.00    +0.157 C 
BRANCH 185 186
ATOM    186  C   UNL     1       5.808   0.406  12.135  1.00  0.00    +0.305 C 
ATOM    187  O   UNL     1       6.932  -0.140  12.106  1.00  0.00    -0.252 OA
BRANCH 186 188
ATOM    188  O   UNL     1       5.089   0.409  13.157  1.00  0.00    -0.481 OA
ATOM    189  H   UNL     1       4.252   0.829  13.139  1.00  0.00    +0.296 HD
ENDBRANCH 186 188
ENDBRANCH 185 186
ENDBRANCH 135 185
ENDBRANCH 133 135
ENDBRANCH 127 131
ENDBRANCH 124 127
ENDBRANCH 122 123
BRANCH 122 190
ATOM    190  C   UNL     1       1.735   4.799   5.477  1.00  0.00    +0.191 C 
BRANCH 190 191
ATOM    191  O   UNL     1       0.478   4.156   5.356  1.00  0.00    -0.394 OA
ATOM    192  H   UNL     1       0.077   4.062   6.234  1.00  0.00    +0.210 HD
ENDBRANCH 190 191
ENDBRANCH 122 190
ENDBRANCH 120 122
ENDBRANCH 117 118
ENDBRANCH 115 117
ENDBRANCH 111 113
ENDBRANCH 109 111
ENDBRANCH 106 107
BRANCH 106 193
ATOM    193  C   UNL     1      -1.816   2.067   2.735  1.00  0.00    +0.070 C 
BRANCH 193 194
ATOM    194  C   UNL     1      -2.323   3.173   1.849  1.00  0.00    -0.045 A 
ATOM    195  C   UNL     1      -2.424   4.474   2.328  1.00  0.00    +0.004 A 
ATOM    196  C   UNL     1      -2.698   2.912   0.538  1.00  0.00    +0.004 A 
ATOM    197  C   UNL     1      -2.892   5.500   1.510  1.00  0.00    +0.000 A 
ATOM    198  C   UNL     1      -3.167   3.932  -0.285  1.00  0.00    +0.000 A 
ATOM    199  C   UNL     1      -3.265   5.225   0.204  1.00  0.00    +0.000 A 
ENDBRANCH 193 194
ENDBRANCH 106 193
ENDBRANCH   3 106
TORSDOF 82
