REMARK  Name = /var/folders/yp/yjbh3p597675h2qddgqr02y00000gn/T/tmp2m5uldeo.pdb
REMARK     285 UNITARY VALUES FOR THE UNIT CELL AUTOMATICALLY SET
REMARK     285 BY MDANALYSIS PDBWRITER BECAUSE UNIT CELL INFORMATION
REMARK     285 WAS MISSING.
REMARK     285 PROTEIN DATA BANK CONVENTIONS REQUIRE THAT
REMARK     285 CRYST1 RECORD IS INCLUDED, BUT THE VALUES ON
REMARK     285 THIS RECORD ARE MEANINGLESS.
REMARK     285 UNITARY VALUES FOR THE UNIT CELL AUTOMATICALLY SET
REMARK     285 BY MDANALYSIS PDBWRITER BECAUSE UNIT CELL INFORMATION
REMARK     285 WAS MISSING.
REMARK     285 PROTEIN DATA BANK CONVENTIONS REQUIRE THAT
REMARK     285 CRYST1 RECORD IS INCLUDED, BUT THE VALUES ON
REMARK     285 THIS RECORD ARE MEANINGLESS.
REMARK                            x       y       z     vdW  Elec       q    Type
REMARK                         _______ _______ _______ _____ _____    ______ ____
ROOT
ATOM      1  N   ASP A   1      -9.865  -7.729  13.934  1.00  0.00    -0.122 NA
ATOM      2  CA  ASP A   1      -9.844  -7.149  15.275  1.00  0.00    +0.181 C 
ATOM      3  C   ASP A   1     -11.047  -7.603  16.083  1.00  0.00    +0.260 C 
ATOM      4  O   ASP A   1     -12.080  -7.961  15.521  1.00  0.00    -0.272 OA
ATOM      5  CB  ASP A   1      -9.819  -5.630  15.210  1.00  0.00    +0.142 C 
ATOM      6  CG  ASP A   1      -8.672  -5.021  15.999  1.00  0.00    +0.367 C 
ATOM      7  OD1 ASP A   1      -8.453  -5.418  17.163  1.00  0.00    -0.246 OA
ATOM      8  OD2 ASP A   1      -7.981  -4.135  15.449  1.00  0.00    -0.246 OA
ATOM      9  N   LYS A   2     -10.916  -7.586  17.406  1.00  0.00    -0.197 N 
ATOM     10  CA  LYS A   2     -12.021  -7.961  18.285  1.00  0.00    +0.173 C 
ATOM     11  C   LYS A   2     -12.569  -6.750  19.023  1.00  0.00    +0.262 C 
ATOM     12  O   LYS A   2     -11.806  -5.950  19.561  1.00  0.00    -0.271 OA
ATOM     13  CB  LYS A   2     -11.579  -9.010  19.293  1.00  0.00    +0.031 C 
ATOM     14  CG  LYS A   2     -11.254 -10.360  18.672  1.00  0.00    +0.009 C 
ATOM     15  CD  LYS A   2     -11.209 -11.464  19.714  1.00  0.00    +0.049 C 
ATOM     16  CE  LYS A   2     -12.551 -11.883  20.112  1.00  0.00    +0.096 C 
ATOM     17  NZ  LYS A   2     -12.997 -11.903  21.366  1.00  0.00    -0.151 NA
ATOM     18  N   LEU A   3     -13.891  -6.613  19.045  1.00  0.00    -0.196 N 
ATOM     19  CA  LEU A   3     -14.612  -6.397  20.297  1.00  0.00    +0.173 C 
ATOM     20  C   LEU A   3     -14.804  -7.707  21.043  1.00  0.00    +0.262 C 
ATOM     21  O   LEU A   3     -15.152  -8.723  20.443  1.00  0.00    -0.271 OA
ATOM     22  CB  LEU A   3     -15.966  -5.758  20.036  1.00  0.00    +0.031 C 
ATOM     23  CG  LEU A   3     -15.951  -4.266  19.696  1.00  0.00    +0.002 C 
ATOM     24  CD1 LEU A   3     -17.293  -3.633  20.044  1.00  0.00    +0.000 C 
ATOM     25  CD2 LEU A   3     -15.982  -4.059  18.186  1.00  0.00    +0.000 C 
ATOM     26  N   ALA A   4     -14.578  -7.687  22.352  1.00  0.00    -0.196 N 
ATOM     27  CA  ALA A   4     -15.651  -7.923  23.314  1.00  0.00    +0.173 C 
ATOM     28  C   ALA A   4     -16.641  -6.769  23.322  1.00  0.00    +0.262 C 
ATOM     29  O   ALA A   4     -16.269  -5.624  23.071  1.00  0.00    -0.271 OA
ATOM     30  CB  ALA A   4     -15.089  -8.119  24.714  1.00  0.00    +0.033 C 
ATOM     31  N   VAL A   5     -17.904  -7.070  23.609  1.00  0.00    -0.196 N 
ATOM     32  CA  VAL A   5     -18.634  -6.364  24.657  1.00  0.00    +0.173 C 
ATOM     33  C   VAL A   5     -18.907  -7.305  25.819  1.00  0.00    +0.262 C 
ATOM     34  O   VAL A   5     -19.402  -8.414  25.622  1.00  0.00    -0.271 OA
ATOM     35  CB  VAL A   5     -19.949  -5.795  24.148  1.00  0.00    +0.029 C 
ATOM     36  CG1 VAL A   5     -20.123  -4.348  24.603  1.00  0.00    +0.002 C 
ATOM     37  CG2 VAL A   5     -19.983  -5.814  22.621  1.00  0.00    +0.002 C 
ATOM     38  N   THR A   6     -18.584  -6.865  27.032  1.00  0.00    -0.194 N 
ATOM     39  CA  THR A   6     -19.500  -7.002  28.159  1.00  0.00    +0.203 C 
ATOM     40  C   THR A   6     -20.164  -5.673  28.478  1.00  0.00    +0.264 C 
ATOM     41  O   THR A   6     -20.973  -5.583  29.400  1.00  0.00    -0.271 OA
ATOM     42  CB  THR A   6     -18.783  -7.522  29.394  1.00  0.00    +0.181 C 
ATOM     43  OG1 THR A   6     -19.652  -8.408  30.103  1.00  0.00    -0.221 OA
ATOM     44  CG2 THR A   6     -18.375  -6.374  30.320  1.00  0.00    +0.038 C 
ATOM     45  N   ALA A   7     -19.822  -4.637  27.716  1.00  0.00    -0.196 N 
ATOM     46  CA  ALA A   7     -20.221  -3.276  28.058  1.00  0.00    +0.173 C 
ATOM     47  C   ALA A   7     -21.718  -3.083  27.875  1.00  0.00    +0.262 C 
ATOM     48  O   ALA A   7     -22.316  -2.214  28.506  1.00  0.00    -0.271 OA
ATOM     49  CB  ALA A   7     -19.471  -2.264  27.210  1.00  0.00    +0.033 C 
ATOM     50  N   LEU A   8     -22.322  -3.893  27.010  1.00  0.00    -0.196 N 
ATOM     51  CA  LEU A   8     -22.764  -3.416  25.703  1.00  0.00    +0.173 C 
ATOM     52  C   LEU A   8     -23.960  -2.488  25.840  1.00  0.00    +0.262 C 
ATOM     53  O   LEU A   8     -24.907  -2.794  26.563  1.00  0.00    -0.271 OA
ATOM     54  CB  LEU A   8     -23.128  -4.582  24.798  1.00  0.00    +0.031 C 
ATOM     55  CG  LEU A   8     -21.992  -5.156  23.950  1.00  0.00    +0.002 C 
ATOM     56  CD1 LEU A   8     -22.415  -5.243  22.488  1.00  0.00    +0.000 C 
ATOM     57  CD2 LEU A   8     -21.815  -6.645  24.229  1.00  0.00    +0.000 C 
ATOM     58  N   LEU A   9     -23.918  -1.354  25.146  1.00  0.00    -0.196 N 
ATOM     59  CA  LEU A   9     -25.042  -0.927  24.319  1.00  0.00    +0.173 C 
ATOM     60  C   LEU A   9     -24.825  -1.318  22.866  1.00  0.00    +0.262 C 
ATOM     61  O   LEU A   9     -23.687  -1.397  22.403  1.00  0.00    -0.271 OA
ATOM     62  CB  LEU A   9     -25.243   0.577  24.415  1.00  0.00    +0.031 C 
ATOM     63  CG  LEU A   9     -25.538   1.129  25.811  1.00  0.00    +0.002 C 
ATOM     64  CD1 LEU A   9     -26.182   2.506  25.708  1.00  0.00    +0.000 C 
ATOM     65  CD2 LEU A   9     -24.246   1.529  26.515  1.00  0.00    +0.000 C 
ATOM     66  N   VAL A  10     -25.915  -1.561  22.144  1.00  0.00    -0.196 N 
ATOM     67  CA  VAL A  10     -25.905  -2.538  21.059  1.00  0.00    +0.173 C 
ATOM     68  C   VAL A  10     -24.997  -2.055  19.940  1.00  0.00    +0.262 C 
ATOM     69  O   VAL A  10     -25.266  -1.032  19.313  1.00  0.00    -0.271 OA
ATOM     70  CB  VAL A  10     -27.300  -2.788  20.508  1.00  0.00    +0.029 C 
ATOM     71  CG1 VAL A  10     -27.323  -4.051  19.650  1.00  0.00    +0.002 C 
ATOM     72  CG2 VAL A  10     -28.296  -2.977  21.649  1.00  0.00    +0.002 C 
ATOM     73  N   VAL A  11     -23.919  -2.792  19.688  1.00  0.00    -0.196 N 
ATOM     74  CA  VAL A  11     -23.315  -2.827  18.359  1.00  0.00    +0.173 C 
ATOM     75  C   VAL A  11     -24.199  -3.627  17.414  1.00  0.00    +0.262 C 
ATOM     76  O   VAL A  11     -25.399  -3.757  17.642  1.00  0.00    -0.271 OA
ATOM     77  CB  VAL A  11     -21.921  -3.432  18.384  1.00  0.00    +0.029 C 
ATOM     78  CG1 VAL A  11     -21.045  -2.815  17.296  1.00  0.00    +0.002 C 
ATOM     79  CG2 VAL A  11     -21.252  -3.170  19.732  1.00  0.00    +0.002 C 
ATOM     80  N   PHE A  12     -23.602  -4.161  16.351  1.00  0.00    -0.196 N 
ATOM     81  CA  PHE A  12     -23.866  -3.664  15.003  1.00  0.00    +0.177 C 
ATOM     82  C   PHE A  12     -25.202  -4.175  14.491  1.00  0.00    +0.262 C 
ATOM     83  O   PHE A  12     -25.539  -5.342  14.685  1.00  0.00    -0.271 OA
ATOM     84  CB  PHE A  12     -22.761  -4.082  14.046  1.00  0.00    +0.057 C 
ATOM     85  CG  PHE A  12     -21.405  -3.557  14.418  1.00  0.00    -0.020 A 
ATOM     86  CD1 PHE A  12     -20.321  -4.423  14.491  1.00  0.00    -0.004 A 
ATOM     87  CE1 PHE A  12     -19.065  -3.937  14.836  1.00  0.00    -0.000 A 
ATOM     88  CD2 PHE A  12     -21.234  -2.204  14.688  1.00  0.00    -0.004 A 
ATOM     89  CE2 PHE A  12     -19.979  -1.718  15.032  1.00  0.00    -0.000 A 
ATOM     90  CZ  PHE A  12     -18.895  -2.584  15.105  1.00  0.00    -0.000 A 
ATOM     91  N   ALA A  13     -25.963  -3.304  13.836  1.00  0.00    -0.196 N 
ATOM     92  CA  ALA A  13     -26.089  -3.345  12.382  1.00  0.00    +0.173 C 
ATOM     93  C   ALA A  13     -25.521  -2.086  11.747  1.00  0.00    +0.262 C 
ATOM     94  O   ALA A  13     -25.687  -0.989  12.280  1.00  0.00    -0.271 OA
ATOM     95  CB  ALA A  13     -27.543  -3.509  11.971  1.00  0.00    +0.033 C 
ATOM     96  N   GLU A  14     -24.852  -2.242  10.609  1.00  0.00    -0.196 N 
ATOM     97  CA  GLU A  14     -24.903  -1.234   9.554  1.00  0.00    +0.173 C 
ATOM     98  C   GLU A  14     -26.264  -1.220   8.874  1.00  0.00    +0.262 C 
ATOM     99  O   GLU A  14     -26.871  -2.269   8.671  1.00  0.00    -0.271 OA
ATOM    100  CB  GLU A  14     -23.820  -1.482   8.516  1.00  0.00    +0.043 C 
ATOM    101  CG  GLU A  14     -23.778  -0.438   7.412  1.00  0.00    +0.116 C 
ATOM    102  CD  GLU A  14     -23.482   0.964   7.919  1.00  0.00    +0.365 C 
ATOM    103  OE1 GLU A  14     -22.387   1.187   8.478  1.00  0.00    -0.246 OA
ATOM    104  OE2 GLU A  14     -24.354   1.846   7.758  1.00  0.00    -0.246 OA
ATOM    105  N   SER A  15     -26.739  -0.028   8.522  1.00  0.00    -0.194 N 
ATOM    106  CA  SER A  15     -27.498   0.152   7.288  1.00  0.00    +0.205 C 
ATOM    107  C   SER A  15     -26.604   0.022   6.066  1.00  0.00    +0.264 C 
ATOM    108  O   SER A  15     -25.441   0.417   6.099  1.00  0.00    -0.271 OA
ATOM    109  CB  SER A  15     -28.184   1.508   7.273  1.00  0.00    +0.213 C 
ATOM    110  OG  SER A  15     -27.299   2.514   6.812  1.00  0.00    -0.218 OA
ATOM    111  N   SER A  16     -27.148  -0.532   4.986  1.00  0.00    -0.194 N 
ATOM    112  CA  SER A  16     -27.652   0.284   3.885  1.00  0.00    +0.205 C 
ATOM    113  C   SER A  16     -28.820   1.149   4.330  1.00  0.00    +0.264 C 
ATOM    114  O   SER A  16     -28.704   2.372   4.389  1.00  0.00    -0.271 OA
ATOM    115  CB  SER A  16     -28.086  -0.593   2.722  1.00  0.00    +0.202 C 
ATOM    116  OG  SER A  16     -28.929  -1.641   3.169  1.00  0.00    -0.260 OA
ATOM    117  N   ASP A  17     -29.946   0.516   4.644  1.00  0.00    -0.196 N 
ATOM    118  CA  ASP A  17     -30.086  -0.209   5.903  1.00  0.00    +0.185 C 
ATOM    119  C   ASP A  17     -29.849  -1.697   5.705  1.00  0.00    +0.269 C 
ATOM    120  O   ASP A  17     -30.351  -2.517   6.472  1.00  0.00    -0.271 OA
ATOM    121  CB  ASP A  17     -31.464   0.010   6.507  1.00  0.00    +0.145 C 
ATOM    122  CG  ASP A  17     -31.603   1.356   7.200  1.00  0.00    +0.367 C 
ATOM    123  OD1 ASP A  17     -30.664   1.776   7.910  1.00  0.00    -0.246 OA
ATOM    124  OD2 ASP A  17     -32.662   1.999   7.034  1.00  0.00    -0.246 OA
ATOM    125  N   LYS A  18     -29.086  -2.048   4.675  1.00  0.00    -0.160 N 
ATOM    126  CA  LYS A  18     -28.934  -3.446   4.281  1.00  0.00    +0.181 C 
ATOM    127  C   LYS A  18     -27.468  -3.851   4.256  1.00  0.00    +0.262 C 
ATOM    128  O   LYS A  18     -26.616  -3.077   3.824  1.00  0.00    -0.271 OA
ATOM    129  CB  LYS A  18     -29.552  -3.694   2.915  1.00  0.00    +0.032 C 
ATOM    130  CG  LYS A  18     -29.348  -2.551   1.932  1.00  0.00    +0.002 C 
ATOM    131  CD  LYS A  18     -30.447  -2.505   0.884  1.00  0.00    +0.000 C 
ATOM    132  CE  LYS A  18     -30.463  -1.230   0.175  1.00  0.00    +0.215 C 
ATOM    133  NZ  LYS A  18     -29.385  -0.604  -0.287  1.00  0.00    -0.027 NA
ATOM    134  N   LEU A  19     -27.177  -5.063   4.720  1.00  0.00    -0.196 N 
ATOM    135  CA  LEU A  19     -25.955  -5.756   4.320  1.00  0.00    +0.173 C 
ATOM    136  C   LEU A  19     -26.142  -6.452   2.982  1.00  0.00    +0.262 C 
ATOM    137  O   LEU A  19     -25.262  -7.185   2.532  1.00  0.00    -0.271 OA
ATOM    138  CB  LEU A  19     -25.547  -6.776   5.371  1.00  0.00    +0.031 C 
ATOM    139  CG  LEU A  19     -24.465  -6.331   6.356  1.00  0.00    +0.002 C 
ATOM    140  CD1 LEU A  19     -25.073  -6.081   7.731  1.00  0.00    +0.000 C 
ATOM    141  CD2 LEU A  19     -24.006  -4.912   6.042  1.00  0.00    +0.000 C 
ATOM    142  N   ARG A  20     -27.286  -6.224   2.345  1.00  0.00    -0.196 N 
ATOM    143  CA  ARG A  20     -27.618  -6.919   1.105  1.00  0.00    +0.173 C 
ATOM    144  C   ARG A  20     -26.574  -6.651   0.033  1.00  0.00    +0.262 C 
ATOM    145  O   ARG A  20     -25.902  -7.571  -0.431  1.00  0.00    -0.271 OA
ATOM    146  CB  ARG A  20     -28.987  -6.499   0.596  1.00  0.00    +0.033 C 
ATOM    147  CG  ARG A  20     -29.601  -7.476  -0.393  1.00  0.00    +0.029 C 
ATOM    148  CD  ARG A  20     -31.116  -7.374  -0.422  1.00  0.00    +0.129 C 
ATOM    149  NE  ARG A  20     -31.735  -8.217   0.597  1.00  0.00    -0.234 NA
ATOM    150  CZ  ARG A  20     -33.005  -8.139   0.979  1.00  0.00    +0.284 C 
ATOM    151  NH1 ARG A  20     -33.805  -7.197   0.487  1.00  0.00    -0.104 N 
ATOM    152  NH2 ARG A  20     -33.481  -9.012   1.863  1.00  0.00    -0.104 N 
ATOM    153  N   ARG A  21     -26.436  -5.388  -0.361  1.00  0.00    -0.194 N 
ATOM    154  CA  ARG A  21     -26.007  -5.058  -1.717  1.00  0.00    +0.198 C 
ATOM    155  C   ARG A  21     -24.574  -5.503  -1.958  1.00  0.00    +0.384 C 
ATOM    156  O   ARG A  21     -24.324  -6.378  -2.786  1.00  0.00    -0.244 OA
ATOM    157  CB  ARG A  21     -26.125  -3.564  -1.975  1.00  0.00    +0.035 C 
ATOM    158  CG  ARG A  21     -27.558  -3.074  -2.107  1.00  0.00    +0.026 C 
ATOM    159  CD  ARG A  21     -28.258  -3.009  -0.759  1.00  0.00    +0.114 C 
ATOM    160  NE  ARG A  21     -29.710  -2.986  -0.908  1.00  0.00    -0.221 N 
ATOM    161  CZ  ARG A  21     -30.479  -1.924  -0.691  1.00  0.00    +0.173 C 
ATOM    162  NH1 ARG A  21     -29.954  -0.790  -0.232  1.00  0.00    -0.146 NA
ATOM    163  NH2 ARG A  21     -31.785  -1.995  -0.934  1.00  0.00    -0.133 NA
ATOM    164  OXT ARG A  21     -23.647  -4.997  -1.329  1.00  0.00    -0.244 OA
ATOM    165  H   ASP A   1      -9.881  -8.746  14.004  1.00  0.00    +0.000 HD
ATOM    166  H   ASP A   1      -9.031  -7.436  13.423  1.00  0.00    +0.000 HD
ATOM    167  H   ASP A   1      -8.176  -3.864  14.574  1.00  0.00    +0.000 HD
ATOM    168  H   LYS A   2     -10.057  -7.315  17.802  1.00  0.00    +0.000 HD
ATOM    169  H   LYS A   2     -12.408 -11.622  22.102  1.00  0.00    +0.000 HD
ATOM    170  H   LEU A   3     -14.395  -6.658  18.201  1.00  0.00    +0.000 HD
ATOM    171  H   ALA A   4     -13.667  -7.509  22.681  1.00  0.00    +0.000 HD
ATOM    172  H   VAL A   5     -18.355  -7.784  23.104  1.00  0.00    +0.000 HD
ATOM    173  H   THR A   6     -17.709  -6.437  27.172  1.00  0.00    +0.000 HD
ATOM    174  H   THR A   6     -20.448  -7.928  30.379  1.00  0.00    +0.000 HD
ATOM    175  H   ALA A   7     -19.288  -4.793  26.904  1.00  0.00    +0.000 HD
ATOM    176  H   LEU A   8     -22.473  -4.834  27.256  1.00  0.00    +0.000 HD
ATOM    177  H   LEU A   9     -23.111  -0.791  25.190  1.00  0.00    +0.000 HD
ATOM    178  H   VAL A  10     -26.746  -1.072  22.346  1.00  0.00    +0.000 HD
ATOM    179  H   VAL A  11     -23.521  -3.326  20.413  1.00  0.00    +0.000 HD
ATOM    180  H   PHE A  12     -22.970  -4.905  16.477  1.00  0.00    +0.000 HD
ATOM    181  H   ALA A  13     -26.451  -2.615  14.343  1.00  0.00    +0.000 HD
ATOM    182  H   GLU A  14     -24.311  -3.053  10.474  1.00  0.00    +0.000 HD
ATOM    183  H   GLU A  14     -25.162   1.633   7.333  1.00  0.00    +0.000 HD
ATOM    184  H   SER A  15     -26.575   0.748   9.105  1.00  0.00    +0.000 HD
ATOM    185  H   SER A  15     -26.532   2.566   7.405  1.00  0.00    +0.000 HD
ATOM    186  H   SER A  16     -27.213  -1.512   4.928  1.00  0.00    +0.000 HD
ATOM    187  H   ASP A  17     -30.702   0.537   4.014  1.00  0.00    +0.000 HD
ATOM    188  H   ASP A  17     -33.343   1.649   6.494  1.00  0.00    +0.000 HD
ATOM    189  H   LYS A  18     -29.136   0.011  -1.014  1.00  0.00    +0.000 HD
ATOM    190  H   LEU A  19     -27.797  -5.503   5.346  1.00  0.00    +0.000 HD
ATOM    191  H   ARG A  20     -27.923  -5.573   2.717  1.00  0.00    +0.000 HD
ATOM    192  H   ARG A  20     -34.745  -7.148   0.778  1.00  0.00    +0.000 HD
ATOM    193  H   ARG A  20     -33.458  -6.548  -0.167  1.00  0.00    +0.000 HD
ATOM    194  H   ARG A  20     -32.893  -9.711   2.230  1.00  0.00    +0.000 HD
ATOM    195  H   ARG A  20     -34.421  -8.958   2.151  1.00  0.00    +0.000 HD
ATOM    196  H   ARG A  21     -26.627  -4.661   0.275  1.00  0.00    +0.000 HD
ATOM    197  H   ARG A  21     -25.019  -6.774  -3.274  1.00  0.00    +0.000 HD
ATOM    198  H   ARG A  21     -30.153  -3.819  -1.189  1.00  0.00    +0.000 HD
ATOM    199  H   ARG A  21     -32.118  -2.556  -1.672  1.00  0.00    +0.000 HD
ENDROOT
TORSDOF 0
