REMARK  Name = /var/folders/yp/yjbh3p597675h2qddgqr02y00000gn/T/tmpke0d0oad.pdb
REMARK     285 UNITARY VALUES FOR THE UNIT CELL AUTOMATICALLY SET
REMARK     285 BY MDANALYSIS PDBWRITER BECAUSE UNIT CELL INFORMATION
REMARK     285 WAS MISSING.
REMARK     285 PROTEIN DATA BANK CONVENTIONS REQUIRE THAT
REMARK     285 CRYST1 RECORD IS INCLUDED, BUT THE VALUES ON
REMARK     285 THIS RECORD ARE MEANINGLESS.
REMARK     285 UNITARY VALUES FOR THE UNIT CELL AUTOMATICALLY SET
REMARK     285 BY MDANALYSIS PDBWRITER BECAUSE UNIT CELL INFORMATION
REMARK     285 WAS MISSING.
REMARK     285 PROTEIN DATA BANK CONVENTIONS REQUIRE THAT
REMARK     285 CRYST1 RECORD IS INCLUDED, BUT THE VALUES ON
REMARK     285 THIS RECORD ARE MEANINGLESS.
REMARK                            x       y       z     vdW  Elec       q    Type
REMARK                         _______ _______ _______ _____ _____    ______ ____
ROOT
ATOM      1  N   ASP A   1      19.549 -20.365 -27.381  1.00  0.00    -0.122 NA
ATOM      2  CA  ASP A   1      19.248 -19.072 -26.772  1.00  0.00    +0.181 C 
ATOM      3  C   ASP A   1      19.487 -19.107 -25.271  1.00  0.00    +0.260 C 
ATOM      4  O   ASP A   1      19.677 -20.176 -24.693  1.00  0.00    -0.272 OA
ATOM      5  CB  ASP A   1      17.810 -18.663 -27.048  1.00  0.00    +0.142 C 
ATOM      6  CG  ASP A   1      16.794 -19.599 -26.413  1.00  0.00    +0.367 C 
ATOM      7  OD1 ASP A   1      15.894 -20.094 -27.124  1.00  0.00    -0.246 OA
ATOM      8  OD2 ASP A   1      16.896 -19.841 -25.191  1.00  0.00    -0.246 OA
ATOM      9  N   LYS A   2      19.476 -17.936 -24.639  1.00  0.00    -0.197 N 
ATOM     10  CA  LYS A   2      19.720 -17.848 -23.202  1.00  0.00    +0.173 C 
ATOM     11  C   LYS A   2      18.504 -17.302 -22.474  1.00  0.00    +0.262 C 
ATOM     12  O   LYS A   2      17.841 -16.387 -22.963  1.00  0.00    -0.271 OA
ATOM     13  CB  LYS A   2      20.925 -16.967 -22.911  1.00  0.00    +0.031 C 
ATOM     14  CG  LYS A   2      22.259 -17.631 -23.208  1.00  0.00    +0.009 C 
ATOM     15  CD  LYS A   2      22.140 -19.145 -23.248  1.00  0.00    +0.049 C 
ATOM     16  CE  LYS A   2      21.010 -19.618 -22.454  1.00  0.00    +0.096 C 
ATOM     17  NZ  LYS A   2      20.300 -20.711 -22.722  1.00  0.00    -0.151 NA
ATOM     18  N   LEU A   3      18.207 -17.861 -21.304  1.00  0.00    -0.196 N 
ATOM     19  CA  LEU A   3      18.381 -17.135 -20.049  1.00  0.00    +0.173 C 
ATOM     20  C   LEU A   3      19.532 -17.714 -19.243  1.00  0.00    +0.262 C 
ATOM     21  O   LEU A   3      19.793 -18.915 -19.300  1.00  0.00    -0.271 OA
ATOM     22  CB  LEU A   3      17.107 -17.181 -19.221  1.00  0.00    +0.031 C 
ATOM     23  CG  LEU A   3      16.008 -16.195 -19.620  1.00  0.00    +0.002 C 
ATOM     24  CD1 LEU A   3      14.658 -16.899 -19.664  1.00  0.00    +0.000 C 
ATOM     25  CD2 LEU A   3      16.127 -15.829 -21.095  1.00  0.00    +0.000 C 
ATOM     26  N   ALA A   4      20.221 -16.862 -18.491  1.00  0.00    -0.196 N 
ATOM     27  CA  ALA A   4      19.845 -15.454 -18.397  1.00  0.00    +0.173 C 
ATOM     28  C   ALA A   4      20.092 -14.733 -19.712  1.00  0.00    +0.262 C 
ATOM     29  O   ALA A   4      20.882 -15.190 -20.537  1.00  0.00    -0.271 OA
ATOM     30  CB  ALA A   4      20.616 -14.761 -17.285  1.00  0.00    +0.033 C 
ATOM     31  N   VAL A   5      19.418 -13.603 -19.909  1.00  0.00    -0.196 N 
ATOM     32  CA  VAL A   5      18.280 -13.546 -20.821  1.00  0.00    +0.173 C 
ATOM     33  C   VAL A   5      18.527 -12.494 -21.890  1.00  0.00    +0.262 C 
ATOM     34  O   VAL A   5      18.757 -11.328 -21.576  1.00  0.00    -0.271 OA
ATOM     35  CB  VAL A   5      16.984 -13.232 -20.092  1.00  0.00    +0.029 C 
ATOM     36  CG1 VAL A   5      15.782 -13.763 -20.870  1.00  0.00    +0.002 C 
ATOM     37  CG2 VAL A   5      16.977 -13.886 -18.712  1.00  0.00    +0.002 C 
ATOM     38  N   THR A   6      18.483 -12.905 -23.153  1.00  0.00    -0.194 N 
ATOM     39  CA  THR A   6      18.186 -11.982 -24.244  1.00  0.00    +0.203 C 
ATOM     40  C   THR A   6      16.698 -11.674 -24.297  1.00  0.00    +0.264 C 
ATOM     41  O   THR A   6      15.883 -12.442 -23.791  1.00  0.00    -0.271 OA
ATOM     42  CB  THR A   6      18.637 -12.543 -25.582  1.00  0.00    +0.181 C 
ATOM     43  OG1 THR A   6      17.636 -13.437 -26.077  1.00  0.00    -0.221 OA
ATOM     44  CG2 THR A   6      19.959 -13.301 -25.445  1.00  0.00    +0.038 C 
ATOM     45  N   ALA A   7      16.344 -10.548 -24.912  1.00  0.00    -0.196 N 
ATOM     46  CA  ALA A   7      15.720 -10.568 -26.232  1.00  0.00    +0.173 C 
ATOM     47  C   ALA A   7      16.747 -10.848 -27.317  1.00  0.00    +0.262 C 
ATOM     48  O   ALA A   7      16.487 -11.621 -28.238  1.00  0.00    -0.271 OA
ATOM     49  CB  ALA A   7      15.025  -9.247 -26.520  1.00  0.00    +0.033 C 
ATOM     50  N   LEU A   8      17.915 -10.220 -27.211  1.00  0.00    -0.196 N 
ATOM     51  CA  LEU A   8      18.014  -8.899 -26.598  1.00  0.00    +0.173 C 
ATOM     52  C   LEU A   8      17.256  -7.864 -27.413  1.00  0.00    +0.261 C 
ATOM     53  O   LEU A   8      17.551  -7.658 -28.589  1.00  0.00    -0.271 OA
ATOM     54  CB  LEU A   8      19.468  -8.474 -26.467  1.00  0.00    +0.034 C 
ATOM     55  CG  LEU A   8      19.734  -7.239 -25.603  1.00  0.00    +0.032 C 
ATOM     56  CD1 LEU A   8      20.367  -7.649 -24.278  1.00  0.00    +0.003 C 
ATOM     57  CD2 LEU A   8      18.425  -6.669 -25.068  1.00  0.00    +0.144 C 
ATOM     58  N   LEU A   9      16.277  -7.214 -26.789  1.00  0.00    -0.202 N 
ATOM     59  CA  LEU A   9      16.057  -5.786 -27.003  1.00  0.00    +0.139 C 
ATOM     60  C   LEU A   9      17.229  -4.973 -26.479  1.00  0.00    +0.210 C 
ATOM     61  O   LEU A   9      17.642  -5.139 -25.333  1.00  0.00    -0.338 OA
ATOM     62  CB  LEU A   9      14.777  -5.332 -26.320  1.00  0.00    +0.026 C 
ATOM     63  CG  LEU A   9      14.233  -3.967 -26.749  1.00  0.00    +0.002 C 
ATOM     64  CD1 LEU A   9      15.381  -3.014 -27.057  1.00  0.00    +0.000 C 
ATOM     65  CD2 LEU A   9      13.633  -3.230 -25.556  1.00  0.00    +0.000 C 
ATOM     66  N   VAL A  10      17.766  -4.092 -27.318  1.00  0.00    -0.183 NA
ATOM     67  CA  VAL A  10      17.408  -2.678 -27.268  1.00  0.00    +0.153 C 
ATOM     68  C   VAL A  10      16.970  -2.209 -28.645  1.00  0.00    +0.258 C 
ATOM     69  O   VAL A  10      17.719  -2.326 -29.614  1.00  0.00    -0.272 OA
ATOM     70  CB  VAL A  10      18.563  -1.817 -26.782  1.00  0.00    +0.025 C 
ATOM     71  CG1 VAL A  10      18.096  -0.846 -25.700  1.00  0.00    +0.002 C 
ATOM     72  CG2 VAL A  10      19.665  -2.690 -26.187  1.00  0.00    +0.002 C 
ATOM     73  N   VAL A  11      15.753  -1.676 -28.735  1.00  0.00    -0.197 N 
ATOM     74  CA  VAL A  11      14.801  -2.125 -29.745  1.00  0.00    +0.173 C 
ATOM     75  C   VAL A  11      14.141  -0.923 -30.400  1.00  0.00    +0.262 C 
ATOM     76  O   VAL A  11      13.767   0.032 -29.722  1.00  0.00    -0.271 OA
ATOM     77  CB  VAL A  11      13.731  -3.029 -29.153  1.00  0.00    +0.029 C 
ATOM     78  CG1 VAL A  11      13.109  -3.909 -30.235  1.00  0.00    +0.002 C 
ATOM     79  CG2 VAL A  11      14.336  -3.945 -28.092  1.00  0.00    +0.002 C 
ATOM     80  N   PHE A  12      13.999  -0.967 -31.723  1.00  0.00    -0.196 N 
ATOM     81  CA  PHE A  12      13.531   0.191 -32.476  1.00  0.00    +0.177 C 
ATOM     82  C   PHE A  12      12.013   0.283 -32.436  1.00  0.00    +0.262 C 
ATOM     83  O   PHE A  12      11.321  -0.626 -32.892  1.00  0.00    -0.271 OA
ATOM     84  CB  PHE A  12      13.996   0.123 -33.921  1.00  0.00    +0.057 C 
ATOM     85  CG  PHE A  12      15.464   0.370 -34.098  1.00  0.00    -0.020 A 
ATOM     86  CD1 PHE A  12      15.967   1.663 -34.005  1.00  0.00    -0.004 A 
ATOM     87  CE1 PHE A  12      17.328   1.893 -34.168  1.00  0.00    -0.000 A 
ATOM     88  CD2 PHE A  12      16.322  -0.692 -34.353  1.00  0.00    -0.004 A 
ATOM     89  CE2 PHE A  12      17.684  -0.463 -34.515  1.00  0.00    -0.000 A 
ATOM     90  CZ  PHE A  12      18.187   0.829 -34.423  1.00  0.00    -0.000 A 
ATOM     91  N   ALA A  13      11.496   1.379 -31.890  1.00  0.00    -0.196 N 
ATOM     92  CA  ALA A  13      10.669   2.298 -32.666  1.00  0.00    +0.173 C 
ATOM     93  C   ALA A  13      11.416   3.588 -32.962  1.00  0.00    +0.262 C 
ATOM     94  O   ALA A  13      12.149   4.094 -32.113  1.00  0.00    -0.271 OA
ATOM     95  CB  ALA A  13       9.379   2.616 -31.931  1.00  0.00    +0.033 C 
ATOM     96  N   GLU A  14      11.230   4.124 -34.165  1.00  0.00    -0.196 N 
ATOM     97  CA  GLU A  14      11.387   5.557 -34.392  1.00  0.00    +0.173 C 
ATOM     98  C   GLU A  14      10.186   6.329 -33.867  1.00  0.00    +0.262 C 
ATOM     99  O   GLU A  14       9.065   5.827 -33.883  1.00  0.00    -0.271 OA
ATOM    100  CB  GLU A  14      11.573   5.856 -35.870  1.00  0.00    +0.043 C 
ATOM    101  CG  GLU A  14      11.625   7.341 -36.194  1.00  0.00    +0.116 C 
ATOM    102  CD  GLU A  14      12.072   7.629 -37.619  1.00  0.00    +0.365 C 
ATOM    103  OE1 GLU A  14      13.004   6.959 -38.110  1.00  0.00    -0.246 OA
ATOM    104  OE2 GLU A  14      11.482   8.536 -38.247  1.00  0.00    -0.246 OA
ATOM    105  N   SER A  15      10.422   7.553 -33.401  1.00  0.00    -0.194 N 
ATOM    106  CA  SER A  15       9.375   8.571 -33.373  1.00  0.00    +0.205 C 
ATOM    107  C   SER A  15       8.986   9.000 -34.779  1.00  0.00    +0.264 C 
ATOM    108  O   SER A  15       9.777   8.876 -35.711  1.00  0.00    -0.271 OA
ATOM    109  CB  SER A  15       9.828   9.785 -32.579  1.00  0.00    +0.213 C 
ATOM    110  OG  SER A  15      10.772  10.542 -33.315  1.00  0.00    -0.218 OA
ATOM    111  N   SER A  16       7.765   9.505 -34.931  1.00  0.00    -0.194 N 
ATOM    112  CA  SER A  16       7.495  10.557 -35.906  1.00  0.00    +0.205 C 
ATOM    113  C   SER A  16       8.359  11.780 -35.655  1.00  0.00    +0.264 C 
ATOM    114  O   SER A  16       8.692  12.085 -34.510  1.00  0.00    -0.271 OA
ATOM    115  CB  SER A  16       6.028  10.956 -35.871  1.00  0.00    +0.213 C 
ATOM    116  OG  SER A  16       5.759  11.780 -34.751  1.00  0.00    -0.218 OA
ATOM    117  N   ASP A  17       8.726  12.482 -36.723  1.00  0.00    -0.196 N 
ATOM    118  CA  ASP A  17       9.077  13.896 -36.620  1.00  0.00    +0.184 C 
ATOM    119  C   ASP A  17       7.846  14.776 -36.761  1.00  0.00    +0.262 C 
ATOM    120  O   ASP A  17       7.956  16.000 -36.822  1.00  0.00    -0.271 OA
ATOM    121  CB  ASP A  17      10.098  14.280 -37.679  1.00  0.00    +0.141 C 
ATOM    122  CG  ASP A  17       9.690  13.858 -39.081  1.00  0.00    +0.325 C 
ATOM    123  OD1 ASP A  17       8.495  13.575 -39.310  1.00  0.00    -0.408 OA
ATOM    124  OD2 ASP A  17      10.575  13.809 -39.963  1.00  0.00    -0.250 OA
ATOM    125  N   LYS A  18       6.670  14.155 -36.813  1.00  0.00    -0.196 N 
ATOM    126  CA  LYS A  18       5.436  14.885 -37.083  1.00  0.00    +0.173 C 
ATOM    127  C   LYS A  18       4.354  14.522 -36.079  1.00  0.00    +0.262 C 
ATOM    128  O   LYS A  18       3.958  13.361 -35.983  1.00  0.00    -0.271 OA
ATOM    129  CB  LYS A  18       4.937  14.602 -38.492  1.00  0.00    +0.032 C 
ATOM    130  CG  LYS A  18       5.665  15.388 -39.570  1.00  0.00    +0.012 C 
ATOM    131  CD  LYS A  18       6.701  14.536 -40.285  1.00  0.00    +0.087 C 
ATOM    132  CE  LYS A  18       7.613  13.892 -39.346  1.00  0.00    +0.228 C 
ATOM    133  NZ  LYS A  18       7.318  12.819 -38.616  1.00  0.00    -0.112 NA
ATOM    134  N   LEU A  19       3.876  15.512 -35.332  1.00  0.00    -0.196 N 
ATOM    135  CA  LEU A  19       2.448  15.630 -35.049  1.00  0.00    +0.173 C 
ATOM    136  C   LEU A  19       1.725  16.329 -36.188  1.00  0.00    +0.262 C 
ATOM    137  O   LEU A  19       2.139  17.401 -36.626  1.00  0.00    -0.271 OA
ATOM    138  CB  LEU A  19       2.219  16.396 -33.755  1.00  0.00    +0.031 C 
ATOM    139  CG  LEU A  19       0.875  16.159 -33.061  1.00  0.00    +0.002 C 
ATOM    140  CD1 LEU A  19      -0.227  16.941 -33.764  1.00  0.00    +0.000 C 
ATOM    141  CD2 LEU A  19       0.839  16.866 -31.711  1.00  0.00    +0.000 C 
ATOM    142  N   ARG A  20       0.644  15.722 -36.669  1.00  0.00    -0.196 N 
ATOM    143  CA  ARG A  20      -0.518  16.483 -37.118  1.00  0.00    +0.173 C 
ATOM    144  C   ARG A  20      -1.254  17.098 -35.940  1.00  0.00    +0.262 C 
ATOM    145  O   ARG A  20      -1.750  16.384 -35.071  1.00  0.00    -0.271 OA
ATOM    146  CB  ARG A  20      -1.471  15.601 -37.909  1.00  0.00    +0.033 C 
ATOM    147  CG  ARG A  20      -2.423  14.794 -37.040  1.00  0.00    +0.029 C 
ATOM    148  CD  ARG A  20      -1.771  13.527 -36.514  1.00  0.00    +0.129 C 
ATOM    149  NE  ARG A  20      -2.729  12.678 -35.813  1.00  0.00    -0.234 NA
ATOM    150  CZ  ARG A  20      -2.406  11.732 -34.934  1.00  0.00    +0.284 C 
ATOM    151  NH1 ARG A  20      -1.167  11.647 -34.456  1.00  0.00    -0.104 N 
ATOM    152  NH2 ARG A  20      -3.329  10.865 -34.532  1.00  0.00    -0.104 N 
ATOM    153  N   ARG A  21      -1.325  18.426 -35.910  1.00  0.00    -0.194 N 
ATOM    154  CA  ARG A  21      -1.219  19.165 -34.655  1.00  0.00    +0.198 C 
ATOM    155  C   ARG A  21      -2.572  19.705 -34.225  1.00  0.00    +0.384 C 
ATOM    156  O   ARG A  21      -3.052  19.395 -33.135  1.00  0.00    -0.244 OA
ATOM    157  CB  ARG A  21      -0.231  20.313 -34.784  1.00  0.00    +0.035 C 
ATOM    158  CG  ARG A  21       1.223  19.871 -34.834  1.00  0.00    +0.029 C 
ATOM    159  CD  ARG A  21       1.648  19.491 -36.243  1.00  0.00    +0.129 C 
ATOM    160  NE  ARG A  21       1.173  20.458 -37.230  1.00  0.00    -0.234 NA
ATOM    161  CZ  ARG A  21       0.143  20.263 -38.048  1.00  0.00    +0.284 C 
ATOM    162  NH1 ARG A  21       0.086  19.183 -38.821  1.00  0.00    -0.104 N 
ATOM    163  NH2 ARG A  21      -0.837  21.159 -38.094  1.00  0.00    -0.104 N 
ATOM    164  OXT ARG A  21      -3.207  20.461 -34.959  1.00  0.00    -0.244 OA
ATOM    165  H   ASP A   1      20.517 -20.617 -27.182  1.00  0.00    +0.000 HD
ATOM    166  H   ASP A   1      19.414 -20.304 -28.391  1.00  0.00    +0.000 HD
ATOM    167  H   ASP A   1      15.850 -19.888 -28.037  1.00  0.00    +0.000 HD
ATOM    168  H   LYS A   2      19.300 -17.114 -25.149  1.00  0.00    +0.000 HD
ATOM    169  H   LYS A   2      20.525 -21.264 -23.505  1.00  0.00    +0.000 HD
ATOM    170  H   LEU A   3      17.864 -18.783 -21.284  1.00  0.00    +0.000 HD
ATOM    171  H   ALA A   4      21.002 -17.187 -17.986  1.00  0.00    +0.000 HD
ATOM    172  H   VAL A   5      19.693 -12.788 -19.431  1.00  0.00    +0.000 HD
ATOM    173  H   THR A   6      18.656 -13.853 -23.357  1.00  0.00    +0.000 HD
ATOM    174  H   THR A   6      17.519 -14.169 -25.451  1.00  0.00    +0.000 HD
ATOM    175  H   ALA A   7      16.506  -9.684 -24.468  1.00  0.00    +0.000 HD
ATOM    176  H   LEU A   8      18.728 -10.655 -27.552  1.00  0.00    +0.000 HD
ATOM    177  H   LEU A   9      15.690  -7.705 -26.170  1.00  0.00    +0.000 HD
ATOM    178  H   VAL A  10      17.538  -4.414 -28.258  1.00  0.00    +0.000 HD
ATOM    179  H   VAL A  11      15.491  -0.963 -28.108  1.00  0.00    +0.000 HD
ATOM    180  H   PHE A  12      14.214  -1.799 -32.203  1.00  0.00    +0.000 HD
ATOM    181  H   ALA A  13      11.674   1.575 -30.942  1.00  0.00    +0.000 HD
ATOM    182  H   GLU A  14      10.982   3.541 -34.919  1.00  0.00    +0.000 HD
ATOM    183  H   GLU A  14      10.787   9.013 -37.839  1.00  0.00    +0.000 HD
ATOM    184  H   SER A  15      11.321   7.777 -33.068  1.00  0.00    +0.000 HD
ATOM    185  H   SER A  15      11.550   9.993 -33.503  1.00  0.00    +0.000 HD
ATOM    186  H   SER A  16       7.029   9.162 -34.374  1.00  0.00    +0.000 HD
ATOM    187  H   SER A  16       5.963  11.295 -33.936  1.00  0.00    +0.000 HD
ATOM    188  H   ASP A  17       8.760  12.040 -37.602  1.00  0.00    +0.000 HD
ATOM    189  H   LYS A  18       6.633  13.182 -36.667  1.00  0.00    +0.000 HD
ATOM    190  H   LYS A  18       7.989  12.443 -38.002  1.00  0.00    +0.000 HD
ATOM    191  H   LEU A  19       4.499  16.180 -34.963  1.00  0.00    +0.000 HD
ATOM    192  H   ARG A  20       0.628  14.739 -36.724  1.00  0.00    +0.000 HD
ATOM    193  H   ARG A  20      -0.938  10.944 -33.806  1.00  0.00    +0.000 HD
ATOM    194  H   ARG A  20      -0.481  12.288 -34.751  1.00  0.00    +0.000 HD
ATOM    195  H   ARG A  20      -3.095  10.164 -33.883  1.00  0.00    +0.000 HD
ATOM    196  H   ARG A  20      -4.246  10.925 -34.883  1.00  0.00    +0.000 HD
ATOM    197  H   ARG A  21      -1.453  18.921 -36.751  1.00  0.00    +0.000 HD
ATOM    198  H   ARG A  21       0.811  18.517 -38.790  1.00  0.00    +0.000 HD
ATOM    199  H   ARG A  21      -0.679  19.049 -39.424  1.00  0.00    +0.000 HD
ATOM    200  H   ARG A  21      -1.602  21.021 -38.697  1.00  0.00    +0.000 HD
ATOM    201  H   ARG A  21      -0.798  21.961 -37.524  1.00  0.00    +0.000 HD
ATOM    202  H   ARG A  21      -2.856  20.708 -35.792  1.00  0.00    +0.000 HD
ENDROOT
TORSDOF 0
