REMARK  Name = /var/folders/yp/yjbh3p597675h2qddgqr02y00000gn/T/tmpdre0ceol.pdb
REMARK     285 UNITARY VALUES FOR THE UNIT CELL AUTOMATICALLY SET
REMARK     285 BY MDANALYSIS PDBWRITER BECAUSE UNIT CELL INFORMATION
REMARK     285 WAS MISSING.
REMARK     285 PROTEIN DATA BANK CONVENTIONS REQUIRE THAT
REMARK     285 CRYST1 RECORD IS INCLUDED, BUT THE VALUES ON
REMARK     285 THIS RECORD ARE MEANINGLESS.
REMARK     285 UNITARY VALUES FOR THE UNIT CELL AUTOMATICALLY SET
REMARK     285 BY MDANALYSIS PDBWRITER BECAUSE UNIT CELL INFORMATION
REMARK     285 WAS MISSING.
REMARK     285 PROTEIN DATA BANK CONVENTIONS REQUIRE THAT
REMARK     285 CRYST1 RECORD IS INCLUDED, BUT THE VALUES ON
REMARK     285 THIS RECORD ARE MEANINGLESS.
REMARK                            x       y       z     vdW  Elec       q    Type
REMARK                         _______ _______ _______ _____ _____    ______ ____
ROOT
ATOM      1  N   ASP A   1      -4.347 -27.593  -3.296  1.00  0.00    -0.122 NA
ATOM      2  CA  ASP A   1      -5.017 -27.184  -4.528  1.00  0.00    +0.181 C 
ATOM      3  C   ASP A   1      -6.522 -27.111  -4.332  1.00  0.00    +0.260 C 
ATOM      4  O   ASP A   1      -7.076 -27.805  -3.480  1.00  0.00    -0.272 OA
ATOM      5  CB  ASP A   1      -4.699 -28.144  -5.662  1.00  0.00    +0.142 C 
ATOM      6  CG  ASP A   1      -5.244 -27.680  -7.004  1.00  0.00    +0.367 C 
ATOM      7  OD1 ASP A   1      -4.602 -26.836  -7.664  1.00  0.00    -0.246 OA
ATOM      8  OD2 ASP A   1      -6.325 -28.166  -7.402  1.00  0.00    -0.246 OA
ATOM      9  N   LYS A   2      -7.185 -26.272  -5.120  1.00  0.00    -0.197 N 
ATOM     10  CA  LYS A   2      -8.626 -26.072  -4.978  1.00  0.00    +0.173 C 
ATOM     11  C   LYS A   2      -9.363 -26.496  -6.238  1.00  0.00    +0.262 C 
ATOM     12  O   LYS A   2      -8.912 -26.219  -7.347  1.00  0.00    -0.271 OA
ATOM     13  CB  LYS A   2      -8.942 -24.618  -4.668  1.00  0.00    +0.031 C 
ATOM     14  CG  LYS A   2      -9.505 -24.393  -3.275  1.00  0.00    +0.009 C 
ATOM     15  CD  LYS A   2      -8.821 -23.234  -2.570  1.00  0.00    +0.049 C 
ATOM     16  CE  LYS A   2      -7.393 -23.184  -2.870  1.00  0.00    +0.096 C 
ATOM     17  NZ  LYS A   2      -6.717 -22.078  -3.164  1.00  0.00    -0.151 NA
ATOM     18  N   LEU A   3     -10.499 -27.167  -6.067  1.00  0.00    -0.196 N 
ATOM     19  CA  LEU A   3     -11.755 -26.695  -6.640  1.00  0.00    +0.173 C 
ATOM     20  C   LEU A   3     -12.281 -25.491  -5.876  1.00  0.00    +0.262 C 
ATOM     21  O   LEU A   3     -12.710 -25.619  -4.730  1.00  0.00    -0.271 OA
ATOM     22  CB  LEU A   3     -12.800 -27.797  -6.632  1.00  0.00    +0.031 C 
ATOM     23  CG  LEU A   3     -14.211 -27.384  -6.208  1.00  0.00    +0.002 C 
ATOM     24  CD1 LEU A   3     -15.010 -28.606  -5.769  1.00  0.00    +0.000 C 
ATOM     25  CD2 LEU A   3     -15.042 -26.989  -7.425  1.00  0.00    +0.000 C 
ATOM     26  N   ALA A   4     -12.250 -24.321  -6.508  1.00  0.00    -0.196 N 
ATOM     27  CA  ALA A   4     -13.442 -23.487  -6.626  1.00  0.00    +0.173 C 
ATOM     28  C   ALA A   4     -14.503 -24.168  -7.475  1.00  0.00    +0.262 C 
ATOM     29  O   ALA A   4     -14.183 -24.849  -8.449  1.00  0.00    -0.271 OA
ATOM     30  CB  ALA A   4     -13.097 -22.135  -7.230  1.00  0.00    +0.033 C 
ATOM     31  N   VAL A   5     -15.768 -23.985  -7.108  1.00  0.00    -0.196 N 
ATOM     32  CA  VAL A   5     -16.853 -24.007  -8.085  1.00  0.00    +0.173 C 
ATOM     33  C   VAL A   5     -16.887 -22.691  -8.846  1.00  0.00    +0.262 C 
ATOM     34  O   VAL A   5     -16.707 -21.625  -8.259  1.00  0.00    -0.271 OA
ATOM     35  CB  VAL A   5     -18.202 -24.248  -7.428  1.00  0.00    +0.029 C 
ATOM     36  CG1 VAL A   5     -18.189 -25.553  -6.633  1.00  0.00    +0.002 C 
ATOM     37  CG2 VAL A   5     -18.535 -23.113  -6.464  1.00  0.00    +0.002 C 
ATOM     38  N   THR A   6     -17.119 -22.766 -10.153  1.00  0.00    -0.194 N 
ATOM     39  CA  THR A   6     -17.701 -21.644 -10.887  1.00  0.00    +0.203 C 
ATOM     40  C   THR A   6     -19.106 -21.980 -11.358  1.00  0.00    +0.264 C 
ATOM     41  O   THR A   6     -19.360 -22.056 -12.560  1.00  0.00    -0.271 OA
ATOM     42  CB  THR A   6     -16.843 -21.261 -12.082  1.00  0.00    +0.181 C 
ATOM     43  OG1 THR A   6     -15.751 -20.452 -11.636  1.00  0.00    -0.221 OA
ATOM     44  CG2 THR A   6     -17.655 -20.478 -13.116  1.00  0.00    +0.038 C 
ATOM     45  N   ALA A   7     -20.019 -22.182 -10.414  1.00  0.00    -0.196 N 
ATOM     46  CA  ALA A   7     -21.384 -21.679 -10.555  1.00  0.00    +0.173 C 
ATOM     47  C   ALA A   7     -21.413 -20.160 -10.492  1.00  0.00    +0.262 C 
ATOM     48  O   ALA A   7     -20.750 -19.558  -9.650  1.00  0.00    -0.271 OA
ATOM     49  CB  ALA A   7     -22.284 -22.250  -9.473  1.00  0.00    +0.033 C 
ATOM     50  N   LEU A   8     -22.186 -19.542 -11.380  1.00  0.00    -0.196 N 
ATOM     51  CA  LEU A   8     -22.898 -18.312 -11.044  1.00  0.00    +0.173 C 
ATOM     52  C   LEU A   8     -24.139 -18.612 -10.221  1.00  0.00    +0.262 C 
ATOM     53  O   LEU A   8     -24.971 -19.425 -10.622  1.00  0.00    -0.271 OA
ATOM     54  CB  LEU A   8     -23.293 -17.556 -12.302  1.00  0.00    +0.031 C 
ATOM     55  CG  LEU A   8     -22.151 -17.178 -13.247  1.00  0.00    +0.002 C 
ATOM     56  CD1 LEU A   8     -22.179 -15.683 -13.537  1.00  0.00    +0.000 C 
ATOM     57  CD2 LEU A   8     -22.426 -17.694 -14.656  1.00  0.00    +0.000 C 
ATOM     58  N   LEU A   9     -24.266 -17.957  -9.070  1.00  0.00    -0.196 N 
ATOM     59  CA  LEU A   9     -25.567 -17.497  -8.596  1.00  0.00    +0.173 C 
ATOM     60  C   LEU A   9     -26.138 -16.439  -9.524  1.00  0.00    +0.262 C 
ATOM     61  O   LEU A   9     -25.440 -15.502  -9.909  1.00  0.00    -0.271 OA
ATOM     62  CB  LEU A   9     -25.459 -16.934  -7.188  1.00  0.00    +0.034 C 
ATOM     63  CG  LEU A   9     -26.756 -16.899  -6.376  1.00  0.00    +0.032 C 
ATOM     64  CD1 LEU A   9     -26.677 -15.820  -5.302  1.00  0.00    +0.144 C 
ATOM     65  CD2 LEU A   9     -26.853 -18.121  -5.471  1.00  0.00    +0.003 C 
ATOM     66  N   VAL A  10     -27.410 -16.584  -9.885  1.00  0.00    -0.196 N 
ATOM     67  CA  VAL A  10     -28.362 -15.484  -9.775  1.00  0.00    +0.173 C 
ATOM     68  C   VAL A  10     -29.478 -15.864  -8.814  1.00  0.00    +0.261 C 
ATOM     69  O   VAL A  10     -30.164 -16.864  -9.017  1.00  0.00    -0.271 OA
ATOM     70  CB  VAL A  10     -28.959 -15.113 -11.123  1.00  0.00    +0.029 C 
ATOM     71  CG1 VAL A  10     -29.135 -13.600 -11.237  1.00  0.00    +0.002 C 
ATOM     72  CG2 VAL A  10     -28.039 -15.566 -12.255  1.00  0.00    +0.002 C 
ATOM     73  N   VAL A  11     -29.660 -15.066  -7.766  1.00  0.00    -0.202 N 
ATOM     74  CA  VAL A  11     -28.661 -14.964  -6.706  1.00  0.00    +0.139 C 
ATOM     75  C   VAL A  11     -29.117 -15.759  -5.493  1.00  0.00    +0.210 C 
ATOM     76  O   VAL A  11     -28.296 -16.318  -4.768  1.00  0.00    -0.338 OA
ATOM     77  CB  VAL A  11     -28.410 -13.521  -6.300  1.00  0.00    +0.024 C 
ATOM     78  CG1 VAL A  11     -27.044 -13.052  -6.798  1.00  0.00    +0.002 C 
ATOM     79  CG2 VAL A  11     -29.472 -12.605  -6.905  1.00  0.00    +0.002 C 
ATOM     80  N   PHE A  12     -30.427 -15.810  -5.271  1.00  0.00    -0.182 NA
ATOM     81  CA  PHE A  12     -31.135 -14.697  -4.645  1.00  0.00    +0.157 C 
ATOM     82  C   PHE A  12     -30.856 -14.654  -3.151  1.00  0.00    +0.258 C 
ATOM     83  O   PHE A  12     -31.158 -15.604  -2.431  1.00  0.00    -0.272 OA
ATOM     84  CB  PHE A  12     -32.635 -14.809  -4.877  1.00  0.00    +0.053 C 
ATOM     85  CG  PHE A  12     -33.002 -15.644  -6.068  1.00  0.00    -0.020 A 
ATOM     86  CD1 PHE A  12     -32.675 -15.210  -7.348  1.00  0.00    -0.004 A 
ATOM     87  CE1 PHE A  12     -33.016 -15.983  -8.451  1.00  0.00    -0.000 A 
ATOM     88  CD2 PHE A  12     -33.670 -16.850  -5.892  1.00  0.00    -0.004 A 
ATOM     89  CE2 PHE A  12     -34.010 -17.624  -6.995  1.00  0.00    -0.000 A 
ATOM     90  CZ  PHE A  12     -33.683 -17.190  -8.275  1.00  0.00    -0.000 A 
ATOM     91  N   ALA A  13     -30.278 -13.550  -2.684  1.00  0.00    -0.197 N 
ATOM     92  CA  ALA A  13     -31.051 -12.519  -1.997  1.00  0.00    +0.173 C 
ATOM     93  C   ALA A  13     -31.401 -11.380  -2.941  1.00  0.00    +0.262 C 
ATOM     94  O   ALA A  13     -30.721 -11.167  -3.941  1.00  0.00    -0.271 OA
ATOM     95  CB  ALA A  13     -30.282 -11.974  -0.806  1.00  0.00    +0.033 C 
ATOM     96  N   GLU A  14     -32.464 -10.647  -2.620  1.00  0.00    -0.196 N 
ATOM     97  CA  GLU A  14     -32.440  -9.190  -2.714  1.00  0.00    +0.173 C 
ATOM     98  C   GLU A  14     -31.617  -8.582  -1.592  1.00  0.00    +0.262 C 
ATOM     99  O   GLU A  14     -31.530  -9.149  -0.503  1.00  0.00    -0.271 OA
ATOM    100  CB  GLU A  14     -33.848  -8.621  -2.676  1.00  0.00    +0.043 C 
ATOM    101  CG  GLU A  14     -34.435  -8.525  -1.278  1.00  0.00    +0.116 C 
ATOM    102  CD  GLU A  14     -34.563  -7.097  -0.775  1.00  0.00    +0.365 C 
ATOM    103  OE1 GLU A  14     -34.923  -6.203  -1.572  1.00  0.00    -0.246 OA
ATOM    104  OE2 GLU A  14     -34.299  -6.869   0.425  1.00  0.00    -0.246 OA
ATOM    105  N   SER A  15     -31.011  -7.427  -1.853  1.00  0.00    -0.194 N 
ATOM    106  CA  SER A  15     -30.596  -6.527  -0.781  1.00  0.00    +0.205 C 
ATOM    107  C   SER A  15     -31.796  -5.964  -0.038  1.00  0.00    +0.264 C 
ATOM    108  O   SER A  15     -32.846  -5.730  -0.633  1.00  0.00    -0.271 OA
ATOM    109  CB  SER A  15     -29.762  -5.382  -1.335  1.00  0.00    +0.213 C 
ATOM    110  OG  SER A  15     -30.584  -4.430  -1.986  1.00  0.00    -0.218 OA
ATOM    111  N   SER A  16     -31.643  -5.749   1.266  1.00  0.00    -0.194 N 
ATOM    112  CA  SER A  16     -30.646  -4.808   1.769  1.00  0.00    +0.205 C 
ATOM    113  C   SER A  16     -29.257  -5.422   1.768  1.00  0.00    +0.264 C 
ATOM    114  O   SER A  16     -29.087  -6.583   2.137  1.00  0.00    -0.271 OA
ATOM    115  CB  SER A  16     -31.000  -4.353   3.176  1.00  0.00    +0.213 C 
ATOM    116  OG  SER A  16     -32.275  -4.840   3.556  1.00  0.00    -0.218 OA
ATOM    117  N   ASP A  17     -28.261  -4.645   1.352  1.00  0.00    -0.196 N 
ATOM    118  CA  ASP A  17     -28.473  -3.228   1.066  1.00  0.00    +0.184 C 
ATOM    119  C   ASP A  17     -28.072  -2.893  -0.360  1.00  0.00    +0.262 C 
ATOM    120  O   ASP A  17     -27.145  -3.491  -0.906  1.00  0.00    -0.271 OA
ATOM    121  CB  ASP A  17     -27.686  -2.357   2.031  1.00  0.00    +0.145 C 
ATOM    122  CG  ASP A  17     -27.977  -2.671   3.490  1.00  0.00    +0.367 C 
ATOM    123  OD1 ASP A  17     -29.137  -2.514   3.928  1.00  0.00    -0.246 OA
ATOM    124  OD2 ASP A  17     -27.037  -3.079   4.206  1.00  0.00    -0.246 OA
ATOM    125  N   LYS A  18     -28.767  -1.937  -0.967  1.00  0.00    -0.196 N 
ATOM    126  CA  LYS A  18     -30.085  -2.201  -1.541  1.00  0.00    +0.173 C 
ATOM    127  C   LYS A  18     -30.115  -1.858  -3.021  1.00  0.00    +0.262 C 
ATOM    128  O   LYS A  18     -29.394  -0.968  -3.469  1.00  0.00    -0.271 OA
ATOM    129  CB  LYS A  18     -31.160  -1.409  -0.814  1.00  0.00    +0.031 C 
ATOM    130  CG  LYS A  18     -31.562  -2.004   0.526  1.00  0.00    +0.009 C 
ATOM    131  CD  LYS A  18     -32.454  -1.062   1.318  1.00  0.00    +0.049 C 
ATOM    132  CE  LYS A  18     -32.958  -1.692   2.535  1.00  0.00    +0.096 C 
ATOM    133  NZ  LYS A  18     -33.684  -2.806   2.567  1.00  0.00    -0.151 NA
ATOM    134  N   LEU A  19     -30.950  -2.562  -3.780  1.00  0.00    -0.196 N 
ATOM    135  CA  LEU A  19     -31.330  -2.108  -5.114  1.00  0.00    +0.173 C 
ATOM    136  C   LEU A  19     -32.647  -1.352  -5.075  1.00  0.00    +0.262 C 
ATOM    137  O   LEU A  19     -33.366  -1.298  -6.072  1.00  0.00    -0.271 OA
ATOM    138  CB  LEU A  19     -31.449  -3.286  -6.069  1.00  0.00    +0.031 C 
ATOM    139  CG  LEU A  19     -30.133  -3.878  -6.574  1.00  0.00    +0.002 C 
ATOM    140  CD1 LEU A  19     -30.282  -4.342  -8.018  1.00  0.00    +0.000 C 
ATOM    141  CD2 LEU A  19     -29.868  -5.231  -5.921  1.00  0.00    +0.000 C 
ATOM    142  N   ARG A  20     -32.967  -0.767  -3.925  1.00  0.00    -0.196 N 
ATOM    143  CA  ARG A  20     -33.850   0.395  -3.881  1.00  0.00    +0.173 C 
ATOM    144  C   ARG A  20     -33.106   1.659  -4.277  1.00  0.00    +0.261 C 
ATOM    145  O   ARG A  20     -31.907   1.621  -4.544  1.00  0.00    -0.271 OA
ATOM    146  CB  ARG A  20     -34.447   0.570  -2.495  1.00  0.00    +0.038 C 
ATOM    147  CG  ARG A  20     -35.282   1.831  -2.340  1.00  0.00    +0.085 C 
ATOM    148  CD  ARG A  20     -35.685   2.067  -0.894  1.00  0.00    +0.141 C 
ATOM    149  NE  ARG A  20     -35.920   3.482  -0.623  1.00  0.00    -0.201 N 
ATOM    150  CZ  ARG A  20     -36.806   3.952   0.251  1.00  0.00    +0.289 C 
ATOM    151  NH1 ARG A  20     -37.330   3.156   1.179  1.00  0.00    -0.104 N 
ATOM    152  NH2 ARG A  20     -37.172   5.230   0.195  1.00  0.00    -0.104 NA
ATOM    153  N   ARG A  21     -33.817   2.782  -4.316  1.00  0.00    -0.201 N 
ATOM    154  CA  ARG A  21     -34.027   3.591  -3.119  1.00  0.00    +0.152 C 
ATOM    155  C   ARG A  21     -35.489   3.578  -2.703  1.00  0.00    +0.262 C 
ATOM    156  O   ARG A  21     -36.344   3.087  -3.439  1.00  0.00    -0.191 OA
ATOM    157  CB  ARG A  21     -33.578   5.025  -3.348  1.00  0.00    +0.029 C 
ATOM    158  CG  ARG A  21     -34.479   5.810  -4.287  1.00  0.00    +0.028 C 
ATOM    159  CD  ARG A  21     -35.742   6.288  -3.590  1.00  0.00    +0.129 C 
ATOM    160  NE  ARG A  21     -36.807   6.578  -4.545  1.00  0.00    -0.234 NA
ATOM    161  CZ  ARG A  21     -37.648   7.604  -4.454  1.00  0.00    +0.284 C 
ATOM    162  NH1 ARG A  21     -38.218   7.912  -3.291  1.00  0.00    -0.104 N 
ATOM    163  NH2 ARG A  21     -37.923   8.329  -5.535  1.00  0.00    -0.104 N 
ATOM    164  OXT ARG A  21     -35.837   4.059  -1.625  1.00  0.00    -0.227 OA
ATOM    165  H   ASP A   1      -3.341 -27.634  -3.453  1.00  0.00    +0.000 HD
ATOM    166  H   ASP A   1      -4.685 -28.513  -3.014  1.00  0.00    +0.000 HD
ATOM    167  H   ASP A   1      -6.776 -28.797  -6.877  1.00  0.00    +0.000 HD
ATOM    168  H   LYS A   2      -6.696 -25.774  -5.814  1.00  0.00    +0.000 HD
ATOM    169  H   LYS A   2      -7.182 -21.209  -3.191  1.00  0.00    +0.000 HD
ATOM    170  H   LEU A   3     -10.492 -27.999  -5.542  1.00  0.00    +0.000 HD
ATOM    171  H   ALA A   4     -11.404 -24.011  -6.904  1.00  0.00    +0.000 HD
ATOM    172  H   VAL A   5     -15.978 -23.831  -6.159  1.00  0.00    +0.000 HD
ATOM    173  H   THR A   6     -16.894 -23.594 -10.636  1.00  0.00    +0.000 HD
ATOM    174  H   THR A   6     -16.095 -19.644 -11.225  1.00  0.00    +0.000 HD
ATOM    175  H   ALA A   7     -19.772 -22.681  -9.603  1.00  0.00    +0.000 HD
ATOM    176  H   LEU A   8     -22.281 -19.922 -12.283  1.00  0.00    +0.000 HD
ATOM    177  H   LEU A   9     -23.464 -17.778  -8.527  1.00  0.00    +0.000 HD
ATOM    178  H   VAL A  10     -27.716 -17.453 -10.234  1.00  0.00    +0.000 HD
ATOM    179  H   VAL A  11     -30.485 -14.533  -7.704  1.00  0.00    +0.000 HD
ATOM    180  H   PHE A  12     -30.588 -16.624  -4.678  1.00  0.00    +0.000 HD
ATOM    181  H   ALA A  13     -29.309 -13.425  -2.805  1.00  0.00    +0.000 HD
ATOM    182  H   GLU A  14     -33.284 -11.097  -2.313  1.00  0.00    +0.000 HD
ATOM    183  H   GLU A  14     -34.033  -7.570   0.987  1.00  0.00    +0.000 HD
ATOM    184  H   SER A  15     -30.839  -7.174  -2.788  1.00  0.00    +0.000 HD
ATOM    185  H   SER A  15     -31.220  -4.064  -1.351  1.00  0.00    +0.000 HD
ATOM    186  H   SER A  16     -32.213  -6.235   1.905  1.00  0.00    +0.000 HD
ATOM    187  H   SER A  16     -32.947  -4.496   2.948  1.00  0.00    +0.000 HD
ATOM    188  H   ASP A  17     -27.364  -5.032   1.234  1.00  0.00    +0.000 HD
ATOM    189  H   ASP A  17     -29.815  -2.207   3.360  1.00  0.00    +0.000 HD
ATOM    190  H   LYS A  18     -28.387  -1.032  -1.031  1.00  0.00    +0.000 HD
ATOM    191  H   LYS A  18     -33.918  -3.267   1.729  1.00  0.00    +0.000 HD
ATOM    192  H   LEU A  19     -31.320  -3.406  -3.434  1.00  0.00    +0.000 HD
ATOM    193  H   ARG A  20     -32.601  -1.125  -3.084  1.00  0.00    +0.000 HD
ATOM    194  H   ARG A  20     -37.062   2.210   1.224  1.00  0.00    +0.000 HD
ATOM    195  H   ARG A  20     -37.986   3.514   1.820  1.00  0.00    +0.000 HD
ATOM    196  H   ARG A  20     -36.786   5.823  -0.490  1.00  0.00    +0.000 HD
ATOM    197  H   ARG A  21     -34.210   3.074  -5.170  1.00  0.00    +0.000 HD
ATOM    198  H   ARG A  21     -35.922   2.751  -4.245  1.00  0.00    +0.000 HD
ATOM    199  H   ARG A  21     -38.840   8.673  -3.234  1.00  0.00    +0.000 HD
ATOM    200  H   ARG A  21     -38.019   7.378  -2.489  1.00  0.00    +0.000 HD
ATOM    201  H   ARG A  21     -37.504   8.105  -6.397  1.00  0.00    +0.000 HD
ATOM    202  H   ARG A  21     -38.545   9.089  -5.473  1.00  0.00    +0.000 HD
ENDROOT
TORSDOF 0
