REMARK  Name = /var/folders/yp/yjbh3p597675h2qddgqr02y00000gn/T/tmpw2cnq1hg.pdb
REMARK     285 UNITARY VALUES FOR THE UNIT CELL AUTOMATICALLY SET
REMARK     285 BY MDANALYSIS PDBWRITER BECAUSE UNIT CELL INFORMATION
REMARK     285 WAS MISSING.
REMARK     285 PROTEIN DATA BANK CONVENTIONS REQUIRE THAT
REMARK     285 CRYST1 RECORD IS INCLUDED, BUT THE VALUES ON
REMARK     285 THIS RECORD ARE MEANINGLESS.
REMARK     285 UNITARY VALUES FOR THE UNIT CELL AUTOMATICALLY SET
REMARK     285 BY MDANALYSIS PDBWRITER BECAUSE UNIT CELL INFORMATION
REMARK     285 WAS MISSING.
REMARK     285 PROTEIN DATA BANK CONVENTIONS REQUIRE THAT
REMARK     285 CRYST1 RECORD IS INCLUDED, BUT THE VALUES ON
REMARK     285 THIS RECORD ARE MEANINGLESS.
REMARK                            x       y       z     vdW  Elec       q    Type
REMARK                         _______ _______ _______ _____ _____    ______ ____
REMARK  Name = /var/folders/yp/yjbh3p597675h2qddgqr02y00000gn/T/tmpw2cnq1hg.pdb
REMARK     285 UNITARY VALUES FOR THE UNIT CELL AUTOMATICALLY SET
REMARK     285 BY MDANALYSIS PDBWRITER BECAUSE UNIT CELL INFORMATION
REMARK     285 WAS MISSING.
REMARK     285 PROTEIN DATA BANK CONVENTIONS REQUIRE THAT
REMARK     285 CRYST1 RECORD IS INCLUDED, BUT THE VALUES ON
REMARK     285 THIS RECORD ARE MEANINGLESS.
REMARK     285 UNITARY VALUES FOR THE UNIT CELL AUTOMATICALLY SET
REMARK     285 BY MDANALYSIS PDBWRITER BECAUSE UNIT CELL INFORMATION
REMARK     285 WAS MISSING.
REMARK     285 PROTEIN DATA BANK CONVENTIONS REQUIRE THAT
REMARK     285 CRYST1 RECORD IS INCLUDED, BUT THE VALUES ON
REMARK     285 THIS RECORD ARE MEANINGLESS.
REMARK                            x       y       z     vdW  Elec       q    Type
REMARK                         _______ _______ _______ _____ _____    ______ ____
REMARK  Name = /var/folders/yp/yjbh3p597675h2qddgqr02y00000gn/T/tmpw2cnq1hg.pdb
REMARK     285 UNITARY VALUES FOR THE UNIT CELL AUTOMATICALLY SET
REMARK     285 BY MDANALYSIS PDBWRITER BECAUSE UNIT CELL INFORMATION
REMARK     285 WAS MISSING.
REMARK     285 PROTEIN DATA BANK CONVENTIONS REQUIRE THAT
REMARK     285 CRYST1 RECORD IS INCLUDED, BUT THE VALUES ON
REMARK     285 THIS RECORD ARE MEANINGLESS.
REMARK     285 UNITARY VALUES FOR THE UNIT CELL AUTOMATICALLY SET
REMARK     285 BY MDANALYSIS PDBWRITER BECAUSE UNIT CELL INFORMATION
REMARK     285 WAS MISSING.
REMARK     285 PROTEIN DATA BANK CONVENTIONS REQUIRE THAT
REMARK     285 CRYST1 RECORD IS INCLUDED, BUT THE VALUES ON
REMARK     285 THIS RECORD ARE MEANINGLESS.
REMARK                            x       y       z     vdW  Elec       q    Type
REMARK                         _______ _______ _______ _____ _____    ______ ____
REMARK  Name = /var/folders/yp/yjbh3p597675h2qddgqr02y00000gn/T/tmpw2cnq1hg.pdb
REMARK     285 UNITARY VALUES FOR THE UNIT CELL AUTOMATICALLY SET
REMARK     285 BY MDANALYSIS PDBWRITER BECAUSE UNIT CELL INFORMATION
REMARK     285 WAS MISSING.
REMARK     285 PROTEIN DATA BANK CONVENTIONS REQUIRE THAT
REMARK     285 CRYST1 RECORD IS INCLUDED, BUT THE VALUES ON
REMARK     285 THIS RECORD ARE MEANINGLESS.
REMARK     285 UNITARY VALUES FOR THE UNIT CELL AUTOMATICALLY SET
REMARK     285 BY MDANALYSIS PDBWRITER BECAUSE UNIT CELL INFORMATION
REMARK     285 WAS MISSING.
REMARK     285 PROTEIN DATA BANK CONVENTIONS REQUIRE THAT
REMARK     285 CRYST1 RECORD IS INCLUDED, BUT THE VALUES ON
REMARK     285 THIS RECORD ARE MEANINGLESS.
REMARK                            x       y       z     vdW  Elec       q    Type
REMARK                         _______ _______ _______ _____ _____    ______ ____
REMARK  Name = /var/folders/yp/yjbh3p597675h2qddgqr02y00000gn/T/tmpw2cnq1hg.pdb
REMARK     285 UNITARY VALUES FOR THE UNIT CELL AUTOMATICALLY SET
REMARK     285 BY MDANALYSIS PDBWRITER BECAUSE UNIT CELL INFORMATION
REMARK     285 WAS MISSING.
REMARK     285 PROTEIN DATA BANK CONVENTIONS REQUIRE THAT
REMARK     285 CRYST1 RECORD IS INCLUDED, BUT THE VALUES ON
REMARK     285 THIS RECORD ARE MEANINGLESS.
REMARK     285 UNITARY VALUES FOR THE UNIT CELL AUTOMATICALLY SET
REMARK     285 BY MDANALYSIS PDBWRITER BECAUSE UNIT CELL INFORMATION
REMARK     285 WAS MISSING.
REMARK     285 PROTEIN DATA BANK CONVENTIONS REQUIRE THAT
REMARK     285 CRYST1 RECORD IS INCLUDED, BUT THE VALUES ON
REMARK     285 THIS RECORD ARE MEANINGLESS.
REMARK                            x       y       z     vdW  Elec       q    Type
REMARK                         _______ _______ _______ _____ _____    ______ ____
REMARK  Name = /var/folders/yp/yjbh3p597675h2qddgqr02y00000gn/T/tmpw2cnq1hg.pdb
REMARK     285 UNITARY VALUES FOR THE UNIT CELL AUTOMATICALLY SET
REMARK     285 BY MDANALYSIS PDBWRITER BECAUSE UNIT CELL INFORMATION
REMARK     285 WAS MISSING.
REMARK     285 PROTEIN DATA BANK CONVENTIONS REQUIRE THAT
REMARK     285 CRYST1 RECORD IS INCLUDED, BUT THE VALUES ON
REMARK     285 THIS RECORD ARE MEANINGLESS.
REMARK     285 UNITARY VALUES FOR THE UNIT CELL AUTOMATICALLY SET
REMARK     285 BY MDANALYSIS PDBWRITER BECAUSE UNIT CELL INFORMATION
REMARK     285 WAS MISSING.
REMARK     285 PROTEIN DATA BANK CONVENTIONS REQUIRE THAT
REMARK     285 CRYST1 RECORD IS INCLUDED, BUT THE VALUES ON
REMARK     285 THIS RECORD ARE MEANINGLESS.
REMARK                            x       y       z     vdW  Elec       q    Type
REMARK                         _______ _______ _______ _____ _____    ______ ____
REMARK  Name = /var/folders/yp/yjbh3p597675h2qddgqr02y00000gn/T/tmpw2cnq1hg.pdb
REMARK     285 UNITARY VALUES FOR THE UNIT CELL AUTOMATICALLY SET
REMARK     285 BY MDANALYSIS PDBWRITER BECAUSE UNIT CELL INFORMATION
REMARK     285 WAS MISSING.
REMARK     285 PROTEIN DATA BANK CONVENTIONS REQUIRE THAT
REMARK     285 CRYST1 RECORD IS INCLUDED, BUT THE VALUES ON
REMARK     285 THIS RECORD ARE MEANINGLESS.
REMARK     285 UNITARY VALUES FOR THE UNIT CELL AUTOMATICALLY SET
REMARK     285 BY MDANALYSIS PDBWRITER BECAUSE UNIT CELL INFORMATION
REMARK     285 WAS MISSING.
REMARK     285 PROTEIN DATA BANK CONVENTIONS REQUIRE THAT
REMARK     285 CRYST1 RECORD IS INCLUDED, BUT THE VALUES ON
REMARK     285 THIS RECORD ARE MEANINGLESS.
REMARK                            x       y       z     vdW  Elec       q    Type
REMARK                         _______ _______ _______ _____ _____    ______ ____
REMARK  Name = /var/folders/yp/yjbh3p597675h2qddgqr02y00000gn/T/tmpw2cnq1hg.pdb
REMARK     285 UNITARY VALUES FOR THE UNIT CELL AUTOMATICALLY SET
REMARK     285 BY MDANALYSIS PDBWRITER BECAUSE UNIT CELL INFORMATION
REMARK     285 WAS MISSING.
REMARK     285 PROTEIN DATA BANK CONVENTIONS REQUIRE THAT
REMARK     285 CRYST1 RECORD IS INCLUDED, BUT THE VALUES ON
REMARK     285 THIS RECORD ARE MEANINGLESS.
REMARK     285 UNITARY VALUES FOR THE UNIT CELL AUTOMATICALLY SET
REMARK     285 BY MDANALYSIS PDBWRITER BECAUSE UNIT CELL INFORMATION
REMARK     285 WAS MISSING.
REMARK     285 PROTEIN DATA BANK CONVENTIONS REQUIRE THAT
REMARK     285 CRYST1 RECORD IS INCLUDED, BUT THE VALUES ON
REMARK     285 THIS RECORD ARE MEANINGLESS.
REMARK                            x       y       z     vdW  Elec       q    Type
REMARK                         _______ _______ _______ _____ _____    ______ ____
REMARK  Name = /var/folders/yp/yjbh3p597675h2qddgqr02y00000gn/T/tmpw2cnq1hg.pdb
REMARK     285 UNITARY VALUES FOR THE UNIT CELL AUTOMATICALLY SET
REMARK     285 BY MDANALYSIS PDBWRITER BECAUSE UNIT CELL INFORMATION
REMARK     285 WAS MISSING.
REMARK     285 PROTEIN DATA BANK CONVENTIONS REQUIRE THAT
REMARK     285 CRYST1 RECORD IS INCLUDED, BUT THE VALUES ON
REMARK     285 THIS RECORD ARE MEANINGLESS.
REMARK     285 UNITARY VALUES FOR THE UNIT CELL AUTOMATICALLY SET
REMARK     285 BY MDANALYSIS PDBWRITER BECAUSE UNIT CELL INFORMATION
REMARK     285 WAS MISSING.
REMARK     285 PROTEIN DATA BANK CONVENTIONS REQUIRE THAT
REMARK     285 CRYST1 RECORD IS INCLUDED, BUT THE VALUES ON
REMARK     285 THIS RECORD ARE MEANINGLESS.
REMARK                            x       y       z     vdW  Elec       q    Type
REMARK                         _______ _______ _______ _____ _____    ______ ____
ROOT
ATOM      1  N   ASP A   1      20.444  -9.442  -1.374  1.00  0.00    -0.122 NA
ATOM      2  CA  ASP A   1      19.238  -9.646  -2.174  1.00  0.00    +0.181 C 
ATOM      3  C   ASP A   1      19.586  -9.860  -3.639  1.00  0.00    +0.260 C 
ATOM      4  O   ASP A   1      20.610  -9.374  -4.115  1.00  0.00    -0.272 OA
ATOM      5  CB  ASP A   1      18.295  -8.462  -2.044  1.00  0.00    +0.142 C 
ATOM      6  CG  ASP A   1      18.461  -7.708  -0.735  1.00  0.00    +0.367 C 
ATOM      7  OD1 ASP A   1      17.929  -6.585  -0.606  1.00  0.00    -0.246 OA
ATOM      8  OD2 ASP A   1      19.131  -8.243   0.174  1.00  0.00    -0.246 OA
ATOM      9  N   LYS A   2      18.732 -10.588  -4.353  1.00  0.00    -0.197 N 
ATOM     10  CA  LYS A   2      19.167 -11.322  -5.537  1.00  0.00    +0.173 C 
ATOM     11  C   LYS A   2      19.670 -10.375  -6.614  1.00  0.00    +0.262 C 
ATOM     12  O   LYS A   2      19.072  -9.327  -6.851  1.00  0.00    -0.271 OA
ATOM     13  CB  LYS A   2      18.035 -12.170  -6.095  1.00  0.00    +0.031 C 
ATOM     14  CG  LYS A   2      17.752 -13.426  -5.287  1.00  0.00    +0.009 C 
ATOM     15  CD  LYS A   2      16.375 -13.993  -5.591  1.00  0.00    +0.049 C 
ATOM     16  CE  LYS A   2      16.284 -14.480  -6.965  1.00  0.00    +0.096 C 
ATOM     17  NZ  LYS A   2      15.408 -15.386  -7.391  1.00  0.00    -0.151 NA
ATOM     18  N   LEU A   3      20.768 -10.743  -7.268  1.00  0.00    -0.196 N 
ATOM     19  CA  LEU A   3      20.794 -10.830  -8.725  1.00  0.00    +0.173 C 
ATOM     20  C   LEU A   3      19.906 -11.961  -9.215  1.00  0.00    +0.261 C 
ATOM     21  O   LEU A   3      19.888 -13.040  -8.626  1.00  0.00    -0.271 OA
ATOM     22  CB  LEU A   3      22.212 -11.044  -9.227  1.00  0.00    +0.033 C 
ATOM     23  N   ALA A   4      19.168 -11.715 -10.293  1.00  0.00    -0.204 N 
ATOM     24  CA  ALA A   4      19.244 -12.567 -11.478  1.00  0.00    +0.115 C 
ATOM     25  CB  ALA A   4      18.172 -12.185 -12.487  1.00  0.00    +0.025 C 
ATOM     26  H   ASP A   1      21.061 -10.249  -1.476  1.00  0.00    +0.000 HD
ATOM     27  H   ASP A   1      20.186  -9.334  -0.393  1.00  0.00    +0.000 HD
ATOM     28  H   ASP A   1      17.433  -6.218  -1.312  1.00  0.00    +0.000 HD
ATOM     29  H   LYS A   2      17.788 -10.632  -4.077  1.00  0.00    +0.000 HD
ATOM     30  H   LYS A   2      14.758 -15.776  -6.763  1.00  0.00    +0.000 HD
ATOM     31  H   LEU A   3      21.582 -10.961  -6.757  1.00  0.00    +0.000 HD
ATOM     32  H   ALA A   4      18.558 -10.943 -10.293  1.00  0.00    +0.000 HD
ATOM      1  CG  LEU A   3      22.442 -10.802 -10.720  1.00  0.00    +0.091 C 
ATOM      2  CD2 LEU A   3      23.839 -11.254 -11.128  1.00  0.00    -0.014 C 
ATOM      3  CG2 VAL A  11      23.314 -11.140 -11.094  1.00  0.00    -0.077 C 
ATOM      1  CD1 LEU A   3      21.627 -11.789 -11.547  1.00  0.00    +0.168 C 
ATOM      2  C   ALA A   4      20.613 -12.475 -12.131  1.00  0.00    +0.090 C 
ATOM      3  O   ALA A   4      21.327 -11.492 -11.948  1.00  0.00    -0.222 OA
ATOM      4  N   VAL A   5      20.979 -13.500 -12.895  1.00  0.00    -0.268 NA
ATOM      5  CA  VAL A   5      22.209 -13.462 -13.679  1.00  0.00    +0.090 C 
ATOM      6  CB  VAL A  11      22.358 -11.785 -12.095  1.00  0.00    +0.037 C 
ATOM      7  CG1 VAL A  11      21.922 -13.133 -11.526  1.00  0.00    +0.105 C 
ATOM      8  H   ALA A   4      21.619 -11.761 -12.834  1.00  0.00    +0.000 HD
ATOM      1  C   VAL A   5      21.916 -12.922 -15.070  1.00  0.00    +0.021 C 
ATOM      2  N   THR A   6      21.899 -11.600 -15.205  1.00  0.00    -0.132 NA
ATOM      3  CA  THR A   6      21.872 -10.969 -16.521  1.00  0.00    +0.118 C 
ATOM      4  C   THR A   6      23.278 -10.839 -17.085  1.00  0.00    +0.059 C 
ATOM      5  O   THR A   6      23.456 -10.700 -18.293  1.00  0.00    -0.382 OA
ATOM      6  CB  THR A   6      21.219  -9.597 -16.464  1.00  0.00    +0.132 C 
ATOM      7  OG1 THR A   6      20.468  -9.385 -17.661  1.00  0.00    -0.355 OA
ATOM      8  CG2 THR A   6      22.270  -8.492 -16.332  1.00  0.00    +0.034 C 
ATOM      9  N   ALA A   7      24.279 -10.886 -16.208  1.00  0.00    +0.438 N 
ATOM     10  CA  ALA A   7      25.579 -10.294 -16.508  1.00  0.00    -0.028 C 
ATOM     11  C   ALA A   7      26.375 -11.178 -17.456  1.00  0.00    +0.096 C 
ATOM     12  O   ALA A   7      27.410 -10.764 -17.973  1.00  0.00    -0.237 OA
ATOM     13  CB  ALA A   7      26.377 -10.070 -15.234  1.00  0.00    +0.120 C 
ATOM     14  N   LEU A   8      25.891 -12.396 -17.683  1.00  0.00    -0.339 NA
ATOM     15  CA  LEU A   8      26.578 -13.335 -18.565  1.00  0.00    +0.117 C 
ATOM     16  C   LEU A   8      25.864 -13.447 -19.901  1.00  0.00    +0.239 C 
ATOM     17  O   LEU A   8      26.322 -14.154 -20.797  1.00  0.00    -0.273 OA
ATOM     18  CB  LEU A   8      26.669 -14.709 -17.921  1.00  0.00    +0.022 C 
ATOM     19  CG  LEU A   8      28.081 -15.239 -17.660  1.00  0.00    +0.002 C 
ATOM     20  CD1 LEU A   8      29.099 -14.112 -17.795  1.00  0.00    +0.000 C 
ATOM     21  CD2 LEU A   8      28.547 -16.115 -18.818  1.00  0.00    +0.000 C 
ATOM     22  N   LEU A   9      24.738 -12.750 -20.036  1.00  0.00    -0.274 N 
ATOM     23  CA  LEU A   9      24.412 -11.651 -19.132  1.00  0.00    +0.052 C 
ATOM     24  C   LEU A   9      24.222 -12.158 -17.711  1.00  0.00    +0.035 C 
ATOM     25  O   LEU A   9      23.294 -12.918 -17.438  1.00  0.00    -0.224 OA
ATOM     26  CB  LEU A   9      23.151 -10.935 -19.588  1.00  0.00    +0.116 C 
ATOM     27  CG  LEU A   9      23.055  -9.449 -19.234  1.00  0.00    +0.057 C 
ATOM     28  CD1 LEU A   9      21.667  -9.123 -18.700  1.00  0.00    +0.144 C 
ATOM     29  CD2 LEU A   9      23.023  -8.598 -20.500  1.00  0.00    +0.005 C 
ATOM     30  N   VAL A  10      25.101 -11.739 -16.805  1.00  0.00    +0.442 N 
ATOM     31  CA  VAL A  10      25.048 -12.202 -15.423  1.00  0.00    -0.065 C 
ATOM     32  C   VAL A  10      25.022 -11.011 -14.480  1.00  0.00    +0.150 C 
ATOM     33  O   VAL A  10      25.990 -10.252 -14.404  1.00  0.00    -0.346 OA
ATOM     34  CB  VAL A  10      26.227 -13.096 -15.078  1.00  0.00    -0.035 C 
ATOM     35  CG1 VAL A  10      25.884 -14.019 -13.910  1.00  0.00    -0.004 C 
ATOM     36  CG2 VAL A  10      26.600 -13.970 -16.274  1.00  0.00    -0.002 C 
ATOM     37  N   VAL A  11      23.918 -10.841 -13.760  1.00  0.00    -0.194 NA
ATOM     38  CA  VAL A  11      23.041 -11.963 -13.441  1.00  0.00    +0.110 C 
ATOM     39  C   VAL A  11      21.988 -12.119 -14.526  1.00  0.00    +0.104 C 
ATOM     40  O   VAL A  11      21.245 -11.181 -14.814  1.00  0.00    -0.118 OA
ATOM     41  CG  PHE A  12      22.556 -13.572 -18.456  1.00  0.00    +0.058 C 
ATOM     42  CD1 PHE A  12      23.673 -12.787 -18.195  1.00  0.00    +0.148 C 
ATOM     43  CE1 PHE A  12      24.271 -12.065 -19.221  1.00  0.00    +0.109 C 
ATOM     44  CD2 PHE A  12      22.037 -13.634 -19.744  1.00  0.00    -0.026 C 
ATOM     45  CE2 PHE A  12      22.636 -12.914 -20.770  1.00  0.00    -0.010 C 
ATOM     46  CZ  PHE A  12      23.752 -12.129 -20.510  1.00  0.00    +0.116 C 
ATOM     47  H   ALA A   7      27.303  -9.827 -18.205  1.00  0.00    +0.000 HD
ATOM     48  H   LEU A   9      23.801 -12.470 -16.742  1.00  0.00    +0.000 HD
ATOM     49  H   VAL A  11      23.347 -10.163 -14.264  1.00  0.00    +0.000 HD
ATOM     50  H   VAL A  11      21.147 -11.510 -13.907  1.00  0.00    +0.000 HD
ATOM      1  O   VAL A   5      21.706 -13.690 -16.007  1.00  0.00    -0.249 OA
ATOM      2  N   PHE A  12      21.922 -13.301 -15.129  1.00  0.00    +0.042 NA
ATOM      3  CA  PHE A  12      21.149 -13.488 -16.354  1.00  0.00    +0.170 C 
ATOM      4  CB  PHE A  12      21.911 -14.350 -17.348  1.00  0.00    +0.037 C 
ATOM      5  H   PHE A  12      22.779 -13.723 -14.772  1.00  0.00    +0.000 HD
ATOM      6  H   PHE A  12      21.157 -13.484 -14.480  1.00  0.00    +0.000 HD
ATOM      1  CB  VAL A   5      22.853 -14.834 -13.794  1.00  0.00    +0.141 C 
ATOM      2  CG1 VAL A   5      22.996 -15.480 -12.418  1.00  0.00    +0.035 C 
ATOM      3  CG2 VAL A   5      21.994 -15.753 -14.659  1.00  0.00    +0.135 C 
ATOM      4  CA  ALA A  13      19.429 -16.426 -15.334  1.00  0.00    +0.077 C 
ATOM      5  C   ALA A  13      18.016 -16.728 -14.859  1.00  0.00    +0.003 C 
ATOM      6  O   ALA A  13      17.626 -16.326 -13.765  1.00  0.00    -0.326 OA
ATOM      7  CB  ALA A  13      20.405 -17.367 -14.649  1.00  0.00    +0.102 C 
ATOM      8  N   GLU A  14      17.250 -17.437 -15.683  1.00  0.00    -0.113 NA
ATOM      9  CA  GLU A  14      15.817 -17.176 -15.801  1.00  0.00    +0.170 C 
ATOM     10  C   GLU A  14      15.080 -17.590 -14.537  1.00  0.00    +0.193 C 
ATOM     11  O   GLU A  14      14.105 -16.952 -14.145  1.00  0.00    -0.301 OA
ATOM     12  CB  GLU A  14      15.229 -17.909 -16.995  1.00  0.00    +0.103 C 
ATOM     13  CG  GLU A  14      13.722 -18.097 -16.918  1.00  0.00    +0.133 C 
ATOM     14  CD  GLU A  14      13.164 -18.957 -18.040  1.00  0.00    +0.366 C 
ATOM     15  OE1 GLU A  14      13.101 -20.196 -17.883  1.00  0.00    -0.246 OA
ATOM     16  OE2 GLU A  14      12.789 -18.386 -19.086  1.00  0.00    -0.246 OA
ATOM     17  N   SER A  15      15.546 -18.661 -13.900  1.00  0.00    -0.139 NA
ATOM     18  CA  SER A  15      16.386 -18.533 -12.713  1.00  0.00    +0.039 C 
ATOM     19  C   SER A  15      17.831 -18.246 -13.089  1.00  0.00    +0.224 C 
ATOM     20  O   SER A  15      18.232 -17.088 -13.191  1.00  0.00    -0.309 OA
ATOM     21  N   SER A  16      18.614 -19.300 -13.297  1.00  0.00    -0.221 NA
ATOM     22  CA  SER A  16      19.921 -19.414 -12.659  1.00  0.00    +0.154 C 
ATOM     23  C   SER A  16      20.873 -18.336 -13.153  1.00  0.00    +0.320 C 
ATOM     24  O   SER A  16      21.705 -17.841 -12.393  1.00  0.00    -0.263 OA
ATOM     25  CB  SER A  16      20.528 -20.782 -12.920  1.00  0.00    +0.274 C 
ATOM     26  OG  SER A  16      21.435 -21.135 -11.890  1.00  0.00    -0.199 OA
ATOM     27  N   ASP A  17      20.751 -17.970 -14.426  1.00  0.00    -0.199 N 
ATOM     28  CA  ASP A  17      21.609 -16.941 -15.006  1.00  0.00    +0.053 C 
ATOM     29  C   ASP A  17      21.082 -15.551 -14.694  1.00  0.00    +0.118 C 
ATOM     30  O   ASP A  17      21.793 -14.729 -14.118  1.00  0.00    -0.355 OA
ATOM     31  N   LYS A  18      19.835 -15.286 -15.071  1.00  0.00    -0.217 NA
ATOM     32  CA  LYS A  18      18.882 -16.356 -15.355  1.00  0.00    +0.020 C 
ATOM     33  CB  LYS A  18      17.840 -16.458 -14.254  1.00  0.00    +0.145 C 
ATOM     34  CG  LYS A  18      18.420 -16.786 -12.888  1.00  0.00    +0.295 C 
ATOM     35  CD  LYS A  18      17.331 -17.013 -11.851  1.00  0.00    +0.153 C 
ATOM     36  CE  LYS A  18      16.110 -17.536 -12.457  1.00  0.00    +0.156 C 
ATOM     37  NZ  LYS A  18      15.921 -17.697 -13.764  1.00  0.00    -0.140 NA
ATOM     38  C   LEU A  19      15.578 -17.536 -17.816  1.00  0.00    +0.198 C 
ATOM     39  O   LEU A  19      14.539 -17.388 -18.459  1.00  0.00    -0.219 OA
ATOM     40  N   ARG A  20      15.591 -17.954 -16.554  1.00  0.00    -0.252 NA
ATOM     41  CA  ARG A  20      14.511 -17.617 -15.629  1.00  0.00    +0.134 C 
ATOM     42  C   ARG A  20      14.652 -16.189 -15.127  1.00  0.00    +0.355 C 
ATOM     43  O   ARG A  20      13.698 -15.416 -15.164  1.00  0.00    -0.168 OA
ATOM     44  CB  ARG A  20      14.492 -18.571 -14.447  1.00  0.00    +0.134 C 
ATOM     45  CG  ARG A  20      13.304 -18.376 -13.520  1.00  0.00    +0.046 C 
ATOM     46  CD  ARG A  20      13.661 -18.680 -12.074  1.00  0.00    +0.117 C 
ATOM     47  NE  ARG A  20      13.573 -17.488 -11.236  1.00  0.00    -0.202 N 
ATOM     48  CZ  ARG A  20      14.544 -16.590 -11.089  1.00  0.00    +0.278 C 
ATOM     49  NH1 ARG A  20      15.737 -16.785 -11.646  1.00  0.00    -0.042 NA
ATOM     50  NH2 ARG A  20      14.320 -15.489 -10.379  1.00  0.00    -0.086 N 
ATOM     51  N   ARG A  21      15.847 -15.838 -14.656  1.00  0.00    -0.119 NA
ATOM     52  CA  ARG A  21      16.824 -16.839 -14.241  1.00  0.00    +0.279 C 
ATOM     53  C   ARG A  21      16.797 -17.033 -12.734  1.00  0.00    +0.099 C 
ATOM     54  O   ARG A  21      17.779 -16.750 -12.050  1.00  0.00    -0.326 OA
ATOM     55  CB  ARG A  21      18.225 -16.439 -14.676  1.00  0.00    +0.034 C 
ATOM     56  CG  ARG A  21      19.158 -17.619 -14.904  1.00  0.00    +0.063 C 
ATOM     57  CD  ARG A  21      19.037 -18.656 -13.800  1.00  0.00    +0.126 C 
ATOM     58  NE  ARG A  21      20.124 -19.629 -13.852  1.00  0.00    -0.229 NA
ATOM     59  CZ  ARG A  21      20.148 -20.778 -13.184  1.00  0.00    +0.202 C 
ATOM     60  NH1 ARG A  21      19.639 -20.859 -11.958  1.00  0.00    -0.094 NA
ATOM     61  NH2 ARG A  21      20.685 -21.856 -13.747  1.00  0.00    -0.110 NA
ATOM     62  OXT ARG A  21      15.794 -17.477 -12.178  1.00  0.00    -0.355 OA
ATOM     63  H   GLU A  14      17.771 -16.625 -16.013  1.00  0.00    +0.000 HD
ATOM     64  H   GLU A  14      17.494 -18.250 -16.248  1.00  0.00    +0.000 HD
ATOM     65  H   GLU A  14      12.855 -17.454 -19.161  1.00  0.00    +0.000 HD
ATOM     66  H   SER A  15      15.429 -19.118 -12.996  1.00  0.00    +0.000 HD
ATOM     67  H   SER A  16      20.940 -21.401 -11.100  1.00  0.00    +0.000 HD
ATOM     68  H   ASP A  17      21.153 -18.551 -15.112  1.00  0.00    +0.000 HD
ATOM     69  H   LYS A  18      19.810 -14.679 -15.890  1.00  0.00    +0.000 HD
ATOM     70  H   LEU A  19      14.078 -18.239 -18.529  1.00  0.00    +0.000 HD
ATOM     71  H   ARG A  20      13.469 -15.142 -14.263  1.00  0.00    +0.000 HD
ATOM     72  H   ARG A  20      12.735 -17.337 -10.742  1.00  0.00    +0.000 HD
ATOM     73  H   ARG A  20      15.035 -14.821 -10.267  1.00  0.00    +0.000 HD
ATOM     74  H   ARG A  20      13.439 -15.341  -9.965  1.00  0.00    +0.000 HD
ATOM     75  H   ARG A  21      16.294 -15.285 -15.388  1.00  0.00    +0.000 HD
ATOM     76  H   ARG A  21      19.363 -21.832 -11.826  1.00  0.00    +0.000 HD
ATOM     77  H   ARG A  21      18.820 -20.304 -12.206  1.00  0.00    +0.000 HD
ATOM     78  H   ARG A  21      21.660 -21.667 -13.979  1.00  0.00    +0.000 HD
ATOM     79  H   ARG A  21      20.170 -22.086 -14.597  1.00  0.00    +0.000 HD
ATOM      1  C   PHE A  12      19.806 -14.131 -16.051  1.00  0.00    +0.342 C 
ATOM      2  O   PHE A  12      18.804 -13.815 -16.691  1.00  0.00    -0.306 OA
ATOM      3  N   ALA A  13      19.782 -15.033 -15.074  1.00  0.00    -0.099 NA
ATOM      4  C   LYS A  18      18.189 -16.132 -16.690  1.00  0.00    +0.287 C 
ATOM      5  O   LYS A  18      17.851 -15.002 -17.034  1.00  0.00    -0.151 OA
ATOM      6  N   LEU A  19      17.982 -17.210 -17.441  1.00  0.00    -0.185 NA
ATOM      7  CA  LEU A  19      16.926 -17.240 -18.450  1.00  0.00    +0.091 C 
ATOM      8  CB  LEU A  19      17.228 -18.285 -19.513  1.00  0.00    +0.019 C 
ATOM      9  CG  LEU A  19      16.532 -18.094 -20.861  1.00  0.00    +0.001 C 
ATOM     10  CD1 LEU A  19      17.561 -17.831 -21.954  1.00  0.00    +0.000 C 
ATOM     11  CD2 LEU A  19      15.800 -16.757 -20.903  1.00  0.00    +0.000 C 
ATOM     12  H   ALA A  13      18.938 -15.480 -14.837  1.00  0.00    +0.000 HD
ATOM     13  H   LEU A  19      17.788 -17.978 -16.797  1.00  0.00    +0.000 HD
ATOM      1  CB  SER A  15      16.323 -19.796 -11.871  1.00  0.00    +0.217 C 
ATOM      2  OG  SER A  15      15.652 -20.832 -12.569  1.00  0.00    -0.217 OA
ATOM      3  H   SER A  15      14.718 -20.845 -12.309  1.00  0.00    +0.000 HD
ATOM      1  CB  ASP A  17      21.720 -17.114 -16.513  1.00  0.00    +0.126 C 
ATOM      2  CG  ASP A  17      20.379 -17.354 -17.185  1.00  0.00    +0.365 C 
ATOM      3  OD1 ASP A  17      19.677 -18.322 -16.820  1.00  0.00    -0.246 OA
ATOM      4  OD2 ASP A  17      20.022 -16.567 -18.089  1.00  0.00    -0.246 OA
ATOM      5  H   ASP A  17      20.578 -15.853 -18.335  1.00  0.00    +0.000 HD
ENDROOT
TORSDOF 0
