REMARK  Name = /var/folders/yp/yjbh3p597675h2qddgqr02y00000gn/T/tmp71_off2k.pdb
REMARK     285 UNITARY VALUES FOR THE UNIT CELL AUTOMATICALLY SET
REMARK     285 BY MDANALYSIS PDBWRITER BECAUSE UNIT CELL INFORMATION
REMARK     285 WAS MISSING.
REMARK     285 PROTEIN DATA BANK CONVENTIONS REQUIRE THAT
REMARK     285 CRYST1 RECORD IS INCLUDED, BUT THE VALUES ON
REMARK     285 THIS RECORD ARE MEANINGLESS.
REMARK     285 UNITARY VALUES FOR THE UNIT CELL AUTOMATICALLY SET
REMARK     285 BY MDANALYSIS PDBWRITER BECAUSE UNIT CELL INFORMATION
REMARK     285 WAS MISSING.
REMARK     285 PROTEIN DATA BANK CONVENTIONS REQUIRE THAT
REMARK     285 CRYST1 RECORD IS INCLUDED, BUT THE VALUES ON
REMARK     285 THIS RECORD ARE MEANINGLESS.
REMARK                            x       y       z     vdW  Elec       q    Type
REMARK                         _______ _______ _______ _____ _____    ______ ____
ROOT
ATOM      1  N   ASP A   1     -11.088   3.652  -7.372  1.00  0.00    -0.122 NA
ATOM      2  CA  ASP A   1     -10.332   4.340  -6.330  1.00  0.00    +0.181 C 
ATOM      3  C   ASP A   1     -11.238   5.234  -5.499  1.00  0.00    +0.260 C 
ATOM      4  O   ASP A   1     -12.355   5.545  -5.909  1.00  0.00    -0.272 OA
ATOM      5  CB  ASP A   1      -9.212   5.173  -6.931  1.00  0.00    +0.142 C 
ATOM      6  CG  ASP A   1      -8.041   4.332  -7.418  1.00  0.00    +0.367 C 
ATOM      7  OD1 ASP A   1      -7.063   4.153  -6.662  1.00  0.00    -0.246 OA
ATOM      8  OD2 ASP A   1      -8.102   3.847  -8.568  1.00  0.00    -0.246 OA
ATOM      9  N   LYS A   2     -10.758   5.649  -4.331  1.00  0.00    -0.197 N 
ATOM     10  CA  LYS A   2     -11.578   6.426  -3.405  1.00  0.00    +0.173 C 
ATOM     11  C   LYS A   2     -11.741   7.858  -3.888  1.00  0.00    +0.262 C 
ATOM     12  O   LYS A   2     -10.797   8.453  -4.405  1.00  0.00    -0.271 OA
ATOM     13  CB  LYS A   2     -10.967   6.427  -2.012  1.00  0.00    +0.031 C 
ATOM     14  CG  LYS A   2     -11.895   5.894  -0.934  1.00  0.00    +0.009 C 
ATOM     15  CD  LYS A   2     -11.122   5.305   0.235  1.00  0.00    +0.049 C 
ATOM     16  CE  LYS A   2      -9.766   4.924  -0.149  1.00  0.00    +0.096 C 
ATOM     17  NZ  LYS A   2      -8.990   4.087   0.533  1.00  0.00    -0.151 NA
ATOM     18  N   LEU A   3     -12.939   8.411  -3.720  1.00  0.00    -0.196 N 
ATOM     19  CA  LEU A   3     -13.108   9.638  -2.947  1.00  0.00    +0.173 C 
ATOM     20  C   LEU A   3     -14.112   9.436  -1.824  1.00  0.00    +0.262 C 
ATOM     21  O   LEU A   3     -15.176   8.856  -2.035  1.00  0.00    -0.271 OA
ATOM     22  CB  LEU A   3     -13.567  10.778  -3.840  1.00  0.00    +0.031 C 
ATOM     23  CG  LEU A   3     -12.657  12.006  -3.885  1.00  0.00    +0.002 C 
ATOM     24  CD1 LEU A   3     -13.487  13.283  -3.816  1.00  0.00    +0.000 C 
ATOM     25  CD2 LEU A   3     -12.070  12.188  -5.282  1.00  0.00    +0.000 C 
ATOM     26  N   ALA A   4     -13.777   9.914  -0.630  1.00  0.00    -0.196 N 
ATOM     27  CA  ALA A   4     -14.418   9.434   0.591  1.00  0.00    +0.173 C 
ATOM     28  C   ALA A   4     -15.476  10.415   1.072  1.00  0.00    +0.262 C 
ATOM     29  O   ALA A   4     -15.335  11.624   0.896  1.00  0.00    -0.271 OA
ATOM     30  CB  ALA A   4     -13.393   9.211   1.690  1.00  0.00    +0.033 C 
ATOM     31  N   VAL A   5     -16.536   9.895   1.683  1.00  0.00    -0.196 N 
ATOM     32  CA  VAL A   5     -17.887  10.098   1.165  1.00  0.00    +0.173 C 
ATOM     33  C   VAL A   5     -18.225  11.580   1.175  1.00  0.00    +0.262 C 
ATOM     34  O   VAL A   5     -18.215  12.215   2.228  1.00  0.00    -0.271 OA
ATOM     35  CB  VAL A   5     -18.925   9.336   1.974  1.00  0.00    +0.029 C 
ATOM     36  CG1 VAL A   5     -19.772   8.448   1.066  1.00  0.00    +0.002 C 
ATOM     37  CG2 VAL A   5     -18.243   8.441   3.006  1.00  0.00    +0.002 C 
ATOM     38  N   THR A   6     -18.522  12.131   0.002  1.00  0.00    -0.194 N 
ATOM     39  CA  THR A   6     -19.668  13.023  -0.151  1.00  0.00    +0.203 C 
ATOM     40  C   THR A   6     -20.903  12.244  -0.572  1.00  0.00    +0.264 C 
ATOM     41  O   THR A   6     -22.009  12.783  -0.580  1.00  0.00    -0.271 OA
ATOM     42  CB  THR A   6     -19.386  14.116  -1.168  1.00  0.00    +0.181 C 
ATOM     43  OG1 THR A   6     -18.064  14.621  -0.962  1.00  0.00    -0.221 OA
ATOM     44  CG2 THR A   6     -20.386  15.266  -1.033  1.00  0.00    +0.038 C 
ATOM     45  N   ALA A   7     -20.717  10.975  -0.923  1.00  0.00    -0.196 N 
ATOM     46  CA  ALA A   7     -21.829  10.136  -1.359  1.00  0.00    +0.173 C 
ATOM     47  C   ALA A   7     -22.878  10.007  -0.265  1.00  0.00    +0.262 C 
ATOM     48  O   ALA A   7     -22.542   9.774   0.895  1.00  0.00    -0.271 OA
ATOM     49  CB  ALA A   7     -21.339   8.754  -1.759  1.00  0.00    +0.033 C 
ATOM     50  N   LEU A   8     -24.147  10.153  -0.635  1.00  0.00    -0.196 N 
ATOM     51  CA  LEU A   8     -25.204   9.315  -0.076  1.00  0.00    +0.173 C 
ATOM     52  C   LEU A   8     -25.302   7.997  -0.825  1.00  0.00    +0.262 C 
ATOM     53  O   LEU A   8     -26.023   7.895  -1.816  1.00  0.00    -0.271 OA
ATOM     54  CB  LEU A   8     -26.543  10.031  -0.129  1.00  0.00    +0.031 C 
ATOM     55  CG  LEU A   8     -26.655  11.313   0.698  1.00  0.00    +0.002 C 
ATOM     56  CD1 LEU A   8     -27.567  11.090   1.897  1.00  0.00    +0.000 C 
ATOM     57  CD2 LEU A   8     -27.490  12.356  -0.039  1.00  0.00    +0.000 C 
ATOM     58  N   LEU A   9     -24.578   6.986  -0.351  1.00  0.00    -0.196 N 
ATOM     59  CA  LEU A   9     -25.125   6.051   0.627  1.00  0.00    +0.173 C 
ATOM     60  C   LEU A   9     -24.534   6.303   2.005  1.00  0.00    +0.261 C 
ATOM     61  O   LEU A   9     -23.395   6.748   2.125  1.00  0.00    -0.271 OA
ATOM     62  CB  LEU A   9     -24.849   4.615   0.211  1.00  0.00    +0.034 C 
ATOM     63  CG  LEU A   9     -26.077   3.717   0.038  1.00  0.00    +0.032 C 
ATOM     64  CD1 LEU A   9     -27.350   4.504   0.327  1.00  0.00    +0.003 C 
ATOM     65  CD2 LEU A   9     -26.165   2.704   1.173  1.00  0.00    +0.144 C 
ATOM     66  N   VAL A  10     -25.310   6.018   3.046  1.00  0.00    -0.202 N 
ATOM     67  CA  VAL A  10     -25.065   4.843   3.877  1.00  0.00    +0.139 C 
ATOM     68  C   VAL A  10     -25.387   3.582   3.090  1.00  0.00    +0.210 C 
ATOM     69  O   VAL A  10     -26.503   3.418   2.601  1.00  0.00    -0.338 OA
ATOM     70  CB  VAL A  10     -25.890   4.868   5.154  1.00  0.00    +0.024 C 
ATOM     71  CG1 VAL A  10     -25.553   3.670   6.038  1.00  0.00    +0.002 C 
ATOM     72  CG2 VAL A  10     -25.599   6.138   5.949  1.00  0.00    +0.002 C 
ATOM     73  N   VAL A  11     -24.409   2.689   2.969  1.00  0.00    -0.183 NA
ATOM     74  CA  VAL A  11     -24.633   1.273   3.248  1.00  0.00    +0.153 C 
ATOM     75  C   VAL A  11     -24.781   1.063   4.746  1.00  0.00    +0.258 C 
ATOM     76  O   VAL A  11     -23.991   1.585   5.532  1.00  0.00    -0.272 OA
ATOM     77  CB  VAL A  11     -23.501   0.406   2.723  1.00  0.00    +0.025 C 
ATOM     78  CG1 VAL A  11     -24.046  -0.895   2.140  1.00  0.00    +0.002 C 
ATOM     79  CG2 VAL A  11     -22.740   1.135   1.618  1.00  0.00    +0.002 C 
ATOM     80  N   PHE A  12     -25.792   0.296   5.144  1.00  0.00    -0.196 N 
ATOM     81  CA  PHE A  12     -27.178   0.669   4.878  1.00  0.00    +0.177 C 
ATOM     82  C   PHE A  12     -27.569   1.898   5.683  1.00  0.00    +0.262 C 
ATOM     83  O   PHE A  12     -27.490   1.892   6.910  1.00  0.00    -0.271 OA
ATOM     84  CB  PHE A  12     -28.122  -0.476   5.211  1.00  0.00    +0.057 C 
ATOM     85  CG  PHE A  12     -28.914  -0.969   4.038  1.00  0.00    -0.020 A 
ATOM     86  CD1 PHE A  12     -28.378  -1.935   3.192  1.00  0.00    -0.004 A 
ATOM     87  CE1 PHE A  12     -29.112  -2.391   2.105  1.00  0.00    -0.000 A 
ATOM     88  CD2 PHE A  12     -30.186  -0.462   3.795  1.00  0.00    -0.004 A 
ATOM     89  CE2 PHE A  12     -30.920  -0.920   2.707  1.00  0.00    -0.000 A 
ATOM     90  CZ  PHE A  12     -30.384  -1.885   1.862  1.00  0.00    -0.000 A 
ATOM     91  N   ALA A  13     -27.990   2.954   4.993  1.00  0.00    -0.196 N 
ATOM     92  CA  ALA A  13     -29.102   3.775   5.463  1.00  0.00    +0.173 C 
ATOM     93  C   ALA A  13     -30.431   3.069   5.249  1.00  0.00    +0.262 C 
ATOM     94  O   ALA A  13     -30.765   2.694   4.126  1.00  0.00    -0.271 OA
ATOM     95  CB  ALA A  13     -29.121   5.117   4.750  1.00  0.00    +0.033 C 
ATOM     96  N   GLU A  14     -31.189   2.887   6.326  1.00  0.00    -0.196 N 
ATOM     97  CA  GLU A  14     -32.486   3.545   6.463  1.00  0.00    +0.173 C 
ATOM     98  C   GLU A  14     -32.325   4.983   6.928  1.00  0.00    +0.262 C 
ATOM     99  O   GLU A  14     -31.461   5.279   7.752  1.00  0.00    -0.271 OA
ATOM    100  CB  GLU A  14     -33.376   2.792   7.439  1.00  0.00    +0.043 C 
ATOM    101  CG  GLU A  14     -34.623   3.557   7.852  1.00  0.00    +0.116 C 
ATOM    102  CD  GLU A  14     -35.805   3.324   6.927  1.00  0.00    +0.365 C 
ATOM    103  OE1 GLU A  14     -36.187   2.153   6.714  1.00  0.00    -0.246 OA
ATOM    104  OE2 GLU A  14     -36.355   4.321   6.410  1.00  0.00    -0.246 OA
ATOM    105  N   SER A  15     -33.158   5.876   6.403  1.00  0.00    -0.194 N 
ATOM    106  CA  SER A  15     -33.541   7.081   7.134  1.00  0.00    +0.205 C 
ATOM    107  C   SER A  15     -34.348   6.739   8.376  1.00  0.00    +0.264 C 
ATOM    108  O   SER A  15     -34.343   5.596   8.829  1.00  0.00    -0.271 OA
ATOM    109  CB  SER A  15     -34.347   8.014   6.245  1.00  0.00    +0.202 C 
ATOM    110  OG  SER A  15     -35.640   7.488   6.006  1.00  0.00    -0.260 OA
ATOM    111  N   SER A  16     -35.044   7.730   8.925  1.00  0.00    -0.193 N 
ATOM    112  CA  SER A  16     -36.502   7.774   8.843  1.00  0.00    +0.206 C 
ATOM    113  C   SER A  16     -36.965   8.138   7.441  1.00  0.00    +0.271 C 
ATOM    114  O   SER A  16     -38.078   7.800   7.044  1.00  0.00    -0.271 OA
ATOM    115  CB  SER A  16     -37.065   8.774   9.840  1.00  0.00    +0.213 C 
ATOM    116  OG  SER A  16     -36.329   8.747  11.050  1.00  0.00    -0.218 OA
ATOM    117  N   ASP A  17     -36.109   8.828   6.693  1.00  0.00    -0.159 N 
ATOM    118  CA  ASP A  17     -36.537  10.002   5.936  1.00  0.00    +0.192 C 
ATOM    119  C   ASP A  17     -37.057   9.606   4.563  1.00  0.00    +0.263 C 
ATOM    120  O   ASP A  17     -38.066  10.136   4.100  1.00  0.00    -0.271 OA
ATOM    121  CB  ASP A  17     -35.395  10.993   5.779  1.00  0.00    +0.146 C 
ATOM    122  CG  ASP A  17     -34.758  11.381   7.103  1.00  0.00    +0.367 C 
ATOM    123  OD1 ASP A  17     -35.455  11.371   8.141  1.00  0.00    -0.246 OA
ATOM    124  OD2 ASP A  17     -33.549  11.700   7.106  1.00  0.00    -0.246 OA
ATOM    125  N   LYS A  18     -36.369   8.673   3.911  1.00  0.00    -0.196 N 
ATOM    126  CA  LYS A  18     -36.493   8.509   2.465  1.00  0.00    +0.173 C 
ATOM    127  C   LYS A  18     -36.832   7.071   2.107  1.00  0.00    +0.262 C 
ATOM    128  O   LYS A  18     -36.349   6.138   2.748  1.00  0.00    -0.271 OA
ATOM    129  CB  LYS A  18     -35.209   8.919   1.761  1.00  0.00    +0.031 C 
ATOM    130  CG  LYS A  18     -33.983   8.150   2.224  1.00  0.00    +0.009 C 
ATOM    131  CD  LYS A  18     -32.798   8.367   1.298  1.00  0.00    +0.049 C 
ATOM    132  CE  LYS A  18     -31.534   8.039   1.953  1.00  0.00    +0.096 C 
ATOM    133  NZ  LYS A  18     -31.188   6.825   2.370  1.00  0.00    -0.151 NA
ATOM    134  N   LEU A  19     -37.660   6.891   1.082  1.00  0.00    -0.196 N 
ATOM    135  CA  LEU A  19     -37.234   6.193  -0.127  1.00  0.00    +0.173 C 
ATOM    136  C   LEU A  19     -36.522   7.141  -1.077  1.00  0.00    +0.262 C 
ATOM    137  O   LEU A  19     -36.766   8.347  -1.056  1.00  0.00    -0.271 OA
ATOM    138  CB  LEU A  19     -38.424   5.563  -0.833  1.00  0.00    +0.031 C 
ATOM    139  CG  LEU A  19     -38.700   4.095  -0.508  1.00  0.00    +0.002 C 
ATOM    140  CD1 LEU A  19     -37.481   3.242  -0.838  1.00  0.00    +0.000 C 
ATOM    141  CD2 LEU A  19     -39.681   3.498  -1.514  1.00  0.00    +0.000 C 
ATOM    142  N   ARG A  20     -35.643   6.599  -1.915  1.00  0.00    -0.196 N 
ATOM    143  CA  ARG A  20     -35.130   7.338  -3.065  1.00  0.00    +0.173 C 
ATOM    144  C   ARG A  20     -36.201   7.491  -4.132  1.00  0.00    +0.262 C 
ATOM    145  O   ARG A  20     -36.945   6.552  -4.411  1.00  0.00    -0.271 OA
ATOM    146  CB  ARG A  20     -33.916   6.644  -3.659  1.00  0.00    +0.033 C 
ATOM    147  CG  ARG A  20     -34.112   5.155  -3.891  1.00  0.00    +0.029 C 
ATOM    148  CD  ARG A  20     -32.947   4.544  -4.652  1.00  0.00    +0.129 C 
ATOM    149  NE  ARG A  20     -32.926   3.089  -4.528  1.00  0.00    -0.234 NA
ATOM    150  CZ  ARG A  20     -31.887   2.378  -4.101  1.00  0.00    +0.284 C 
ATOM    151  NH1 ARG A  20     -30.745   2.977  -3.773  1.00  0.00    -0.104 N 
ATOM    152  NH2 ARG A  20     -31.990   1.056  -4.000  1.00  0.00    -0.104 N 
ATOM    153  N   ARG A  21     -36.279   8.674  -4.733  1.00  0.00    -0.194 N 
ATOM    154  CA  ARG A  21     -36.646   8.790  -6.141  1.00  0.00    +0.198 C 
ATOM    155  C   ARG A  21     -35.426   9.079  -7.000  1.00  0.00    +0.384 C 
ATOM    156  O   ARG A  21     -35.466   9.949  -7.869  1.00  0.00    -0.244 OA
ATOM    157  CB  ARG A  21     -37.681   9.885  -6.344  1.00  0.00    +0.035 C 
ATOM    158  CG  ARG A  21     -39.035   9.575  -5.727  1.00  0.00    +0.029 C 
ATOM    159  CD  ARG A  21     -40.064  10.645  -6.056  1.00  0.00    +0.129 C 
ATOM    160  NE  ARG A  21     -41.373  10.323  -5.496  1.00  0.00    -0.234 NA
ATOM    161  CZ  ARG A  21     -42.480  10.143  -6.210  1.00  0.00    +0.284 C 
ATOM    162  NH1 ARG A  21     -42.448  10.211  -7.539  1.00  0.00    -0.104 N 
ATOM    163  NH2 ARG A  21     -43.629   9.891  -5.590  1.00  0.00    -0.104 N 
ATOM    164  OXT ARG A  21     -34.384   8.446  -6.838  1.00  0.00    -0.244 OA
ATOM    165  H   ASP A   1     -11.833   3.101  -6.945  1.00  0.00    +0.000 HD
ATOM    166  H   ASP A   1     -10.465   3.035  -7.892  1.00  0.00    +0.000 HD
ATOM    167  H   ASP A   1      -8.855   4.005  -9.104  1.00  0.00    +0.000 HD
ATOM    168  H   LYS A   2      -9.830   5.429  -4.085  1.00  0.00    +0.000 HD
ATOM    169  H   LYS A   2      -9.322   3.675   1.363  1.00  0.00    +0.000 HD
ATOM    170  H   LEU A   3     -13.727   7.984  -4.125  1.00  0.00    +0.000 HD
ATOM    171  H   ALA A   4     -13.081  10.607  -0.567  1.00  0.00    +0.000 HD
ATOM    172  H   VAL A   5     -16.408   9.363   2.502  1.00  0.00    +0.000 HD
ATOM    173  H   THR A   6     -17.957  11.933  -0.780  1.00  0.00    +0.000 HD
ATOM    174  H   THR A   6     -17.997  14.997  -0.071  1.00  0.00    +0.000 HD
ATOM    175  H   ALA A   7     -19.810  10.594  -0.888  1.00  0.00    +0.000 HD
ATOM    176  H   LEU A   8     -24.379  10.841  -1.300  1.00  0.00    +0.000 HD
ATOM    177  H   LEU A   9     -23.653   6.866  -0.667  1.00  0.00    +0.000 HD
ATOM    178  H   VAL A  10     -26.064   6.612   3.262  1.00  0.00    +0.000 HD
ATOM    179  H   VAL A  11     -24.085   2.745   2.004  1.00  0.00    +0.000 HD
ATOM    180  H   PHE A  12     -25.602  -0.539   5.627  1.00  0.00    +0.000 HD
ATOM    181  H   ALA A  13     -27.543   3.187   4.147  1.00  0.00    +0.000 HD
ATOM    182  H   GLU A  14     -30.871   2.296   7.046  1.00  0.00    +0.000 HD
ATOM    183  H   GLU A  14     -36.035   5.182   6.599  1.00  0.00    +0.000 HD
ATOM    184  H   SER A  15     -33.525   5.722   5.502  1.00  0.00    +0.000 HD
ATOM    185  H   SER A  16     -34.567   8.449   9.396  1.00  0.00    +0.000 HD
ATOM    186  H   SER A  16     -35.405   8.983  10.871  1.00  0.00    +0.000 HD
ATOM    187  H   ASP A  17     -33.061  11.695   6.307  1.00  0.00    +0.000 HD
ATOM    188  H   LYS A  18     -35.764   8.081   4.413  1.00  0.00    +0.000 HD
ATOM    189  H   LYS A  18     -31.805   6.067   2.245  1.00  0.00    +0.000 HD
ATOM    190  H   LEU A  19     -38.581   7.235   1.140  1.00  0.00    +0.000 HD
ATOM    191  H   ARG A  20     -35.330   5.679  -1.755  1.00  0.00    +0.000 HD
ATOM    192  H   ARG A  20     -29.981   2.442  -3.458  1.00  0.00    +0.000 HD
ATOM    193  H   ARG A  20     -30.664   3.955  -3.847  1.00  0.00    +0.000 HD
ATOM    194  H   ARG A  20     -31.224   0.525  -3.684  1.00  0.00    +0.000 HD
ATOM    195  H   ARG A  20     -32.833   0.608  -4.241  1.00  0.00    +0.000 HD
ATOM    196  H   ARG A  21     -36.086   9.490  -4.217  1.00  0.00    +0.000 HD
ATOM    197  H   ARG A  21     -36.253  10.440  -8.005  1.00  0.00    +0.000 HD
ATOM    198  H   ARG A  21     -41.601  10.397  -8.002  1.00  0.00    +0.000 HD
ATOM    199  H   ARG A  21     -43.273  10.074  -8.059  1.00  0.00    +0.000 HD
ATOM    200  H   ARG A  21     -43.657   9.840  -4.608  1.00  0.00    +0.000 HD
ATOM    201  H   ARG A  21     -44.451   9.755  -6.114  1.00  0.00    +0.000 HD
ENDROOT
TORSDOF 0
