REMARK  Name = /var/folders/yp/yjbh3p597675h2qddgqr02y00000gn/T/tmppfqps5ac.pdb
REMARK   1 CREATED WITH OPENMM 8.6.1, 2026-10-07
REMARK                            x       y       z     vdW  Elec       q    Type
REMARK                         _______ _______ _______ _____ _____    ______ ____
ROOT
ATOM      1  N   ASP A   1     -31.037 -31.794  24.943  1.00  0.00    -0.122 NA
ATOM      2  CA  ASP A   1     -32.216 -32.686  25.102  1.00  0.00    +0.181 C 
ATOM      3  C   ASP A   1     -31.758 -34.115  25.269  1.00  0.00    +0.260 C 
ATOM      4  O   ASP A   1     -30.710 -34.383  24.815  1.00  0.00    -0.272 OA
ATOM      5  CB  ASP A   1     -33.219 -32.491  23.959  1.00  0.00    +0.142 C 
ATOM      6  CG  ASP A   1     -34.547 -33.208  24.195  1.00  0.00    +0.367 C 
ATOM      7  OD1 ASP A   1     -34.653 -34.123  25.036  1.00  0.00    -0.246 OA
ATOM      8  OD2 ASP A   1     -35.545 -32.798  23.567  1.00  0.00    -0.246 OA
ATOM      9  N   LYS A   2     -32.397 -35.029  25.978  1.00  0.00    -0.197 N 
ATOM     10  CA  LYS A   2     -31.973 -36.435  26.069  1.00  0.00    +0.173 C 
ATOM     11  C   LYS A   2     -32.311 -37.204  24.791  1.00  0.00    +0.262 C 
ATOM     12  O   LYS A   2     -33.286 -36.901  24.102  1.00  0.00    -0.271 OA
ATOM     13  CB  LYS A   2     -32.645 -37.098  27.261  1.00  0.00    +0.031 C 
ATOM     14  CG  LYS A   2     -32.139 -36.545  28.604  1.00  0.00    +0.004 C 
ATOM     15  CD  LYS A   2     -33.252 -36.591  29.654  1.00  0.00    +0.021 C 
ATOM     16  CE  LYS A   2     -34.260 -35.488  29.320  1.00  0.00    +0.109 C 
ATOM     17  NZ  LYS A   2     -35.559 -35.641  29.985  1.00  0.00    -0.131 NA
ATOM     18  N   LEU A   3     -31.462 -38.181  24.482  1.00  0.00    -0.196 N 
ATOM     19  CA  LEU A   3     -30.725 -38.215  23.223  1.00  0.00    +0.173 C 
ATOM     20  C   LEU A   3     -31.610 -38.443  21.986  1.00  0.00    +0.262 C 
ATOM     21  O   LEU A   3     -32.583 -39.186  22.080  1.00  0.00    -0.271 OA
ATOM     22  CB  LEU A   3     -29.577 -39.227  23.323  1.00  0.00    +0.031 C 
ATOM     23  CG  LEU A   3     -28.418 -38.815  24.251  1.00  0.00    +0.002 C 
ATOM     24  CD1 LEU A   3     -27.182 -39.647  23.952  1.00  0.00    +0.000 C 
ATOM     25  CD2 LEU A   3     -28.765 -39.118  25.706  1.00  0.00    +0.000 C 
ATOM     26  N   ALA A   4     -31.324 -37.872  20.811  1.00  0.00    -0.196 N 
ATOM     27  CA  ALA A   4     -30.148 -38.243  20.013  1.00  0.00    +0.173 C 
ATOM     28  C   ALA A   4     -28.787 -37.861  20.603  1.00  0.00    +0.262 C 
ATOM     29  O   ALA A   4     -27.761 -38.429  20.252  1.00  0.00    -0.271 OA
ATOM     30  CB  ALA A   4     -30.289 -37.655  18.607  1.00  0.00    +0.033 C 
ATOM     31  N   VAL A   5     -28.709 -36.969  21.570  1.00  0.00    -0.196 N 
ATOM     32  CA  VAL A   5     -28.850 -35.566  21.282  1.00  0.00    +0.173 C 
ATOM     33  C   VAL A   5     -27.468 -35.057  20.970  1.00  0.00    +0.262 C 
ATOM     34  O   VAL A   5     -26.496 -35.321  21.677  1.00  0.00    -0.271 OA
ATOM     35  CB  VAL A   5     -29.397 -34.793  22.460  1.00  0.00    +0.029 C 
ATOM     36  CG1 VAL A   5     -30.929 -35.018  22.380  1.00  0.00    +0.002 C 
ATOM     37  CG2 VAL A   5     -28.559 -35.096  23.749  1.00  0.00    +0.002 C 
ATOM     38  N   THR A   6     -27.377 -34.292  19.904  1.00  0.00    -0.194 N 
ATOM     39  CA  THR A   6     -26.276 -33.338  19.755  1.00  0.00    +0.203 C 
ATOM     40  C   THR A   6     -26.689 -31.965  20.285  1.00  0.00    +0.264 C 
ATOM     41  O   THR A   6     -25.899 -31.021  20.250  1.00  0.00    -0.271 OA
ATOM     42  CB  THR A   6     -25.852 -33.232  18.289  1.00  0.00    +0.181 C 
ATOM     43  OG1 THR A   6     -26.723 -32.364  17.593  1.00  0.00    -0.221 OA
ATOM     44  CG2 THR A   6     -25.879 -34.589  17.577  1.00  0.00    +0.038 C 
ATOM     45  N   ALA A   7     -27.953 -31.839  20.705  1.00  0.00    -0.196 N 
ATOM     46  CA  ALA A   7     -28.706 -30.605  20.581  1.00  0.00    +0.173 C 
ATOM     47  C   ALA A   7     -28.055 -29.457  21.354  1.00  0.00    +0.262 C 
ATOM     48  O   ALA A   7     -27.712 -29.598  22.530  1.00  0.00    -0.271 OA
ATOM     49  CB  ALA A   7     -30.152 -30.850  21.039  1.00  0.00    +0.033 C 
ATOM     50  N   LEU A   8     -27.951 -28.303  20.698  1.00  0.00    -0.196 N 
ATOM     51  CA  LEU A   8     -28.991 -27.291  20.864  1.00  0.00    +0.173 C 
ATOM     52  C   LEU A   8     -30.137 -27.544  19.876  1.00  0.00    +0.262 C 
ATOM     53  O   LEU A   8     -29.904 -27.856  18.704  1.00  0.00    -0.271 OA
ATOM     54  CB  LEU A   8     -28.425 -25.885  20.600  1.00  0.00    +0.031 C 
ATOM     55  CG  LEU A   8     -27.657 -25.254  21.774  1.00  0.00    +0.002 C 
ATOM     56  CD1 LEU A   8     -28.072 -23.795  21.952  1.00  0.00    +0.000 C 
ATOM     57  CD2 LEU A   8     -26.160 -25.191  21.486  1.00  0.00    +0.000 C 
ATOM     58  N   LEU A   9     -31.366 -27.332  20.342  1.00  0.00    -0.196 N 
ATOM     59  CA  LEU A   9     -32.414 -26.761  19.501  1.00  0.00    +0.173 C 
ATOM     60  C   LEU A   9     -32.131 -25.262  19.326  1.00  0.00    +0.262 C 
ATOM     61  O   LEU A   9     -31.828 -24.567  20.300  1.00  0.00    -0.271 OA
ATOM     62  CB  LEU A   9     -33.780 -26.976  20.179  1.00  0.00    +0.031 C 
ATOM     63  CG  LEU A   9     -34.979 -27.004  19.209  1.00  0.00    +0.002 C 
ATOM     64  CD1 LEU A   9     -36.165 -26.258  19.804  1.00  0.00    +0.000 C 
ATOM     65  CD2 LEU A   9     -35.485 -28.430  19.017  1.00  0.00    +0.000 C 
ATOM     66  N   VAL A  10     -32.291 -24.758  18.106  1.00  0.00    -0.196 N 
ATOM     67  CA  VAL A  10     -32.511 -23.327  17.865  1.00  0.00    +0.173 C 
ATOM     68  C   VAL A  10     -33.765 -23.180  17.027  1.00  0.00    +0.262 C 
ATOM     69  O   VAL A  10     -33.793 -23.590  15.865  1.00  0.00    -0.271 OA
ATOM     70  CB  VAL A  10     -31.320 -22.645  17.186  1.00  0.00    +0.029 C 
ATOM     71  CG1 VAL A  10     -31.576 -21.137  17.079  1.00  0.00    +0.002 C 
ATOM     72  CG2 VAL A  10     -30.031 -22.862  17.981  1.00  0.00    +0.002 C 
ATOM     73  N   VAL A  11     -34.824 -22.675  17.652  1.00  0.00    -0.196 N 
ATOM     74  CA  VAL A  11     -36.190 -23.027  17.263  1.00  0.00    +0.173 C 
ATOM     75  C   VAL A  11     -36.480 -22.612  15.826  1.00  0.00    +0.262 C 
ATOM     76  O   VAL A  11     -36.251 -21.461  15.443  1.00  0.00    -0.271 OA
ATOM     77  CB  VAL A  11     -37.226 -22.400  18.214  1.00  0.00    +0.029 C 
ATOM     78  CG1 VAL A  11     -38.644 -22.889  17.908  1.00  0.00    +0.002 C 
ATOM     79  CG2 VAL A  11     -36.964 -22.735  19.685  1.00  0.00    +0.002 C 
ATOM     80  N   PHE A  12     -37.051 -23.537  15.055  1.00  0.00    -0.196 N 
ATOM     81  CA  PHE A  12     -37.958 -23.170  13.977  1.00  0.00    +0.177 C 
ATOM     82  C   PHE A  12     -39.335 -22.833  14.548  1.00  0.00    +0.262 C 
ATOM     83  O   PHE A  12     -40.163 -23.717  14.783  1.00  0.00    -0.271 OA
ATOM     84  CB  PHE A  12     -38.083 -24.290  12.945  1.00  0.00    +0.057 C 
ATOM     85  CG  PHE A  12     -36.802 -24.566  12.210  1.00  0.00    -0.020 A 
ATOM     86  CD1 PHE A  12     -36.039 -25.698  12.535  1.00  0.00    -0.004 A 
ATOM     87  CE1 PHE A  12     -34.847 -25.959  11.844  1.00  0.00    -0.000 A 
ATOM     88  CD2 PHE A  12     -36.373 -23.689  11.199  1.00  0.00    -0.004 A 
ATOM     89  CE2 PHE A  12     -35.179 -23.950  10.510  1.00  0.00    -0.000 A 
ATOM     90  CZ  PHE A  12     -34.418 -25.086  10.832  1.00  0.00    -0.000 A 
ATOM     91  N   ALA A  13     -39.568 -21.538  14.753  1.00  0.00    -0.196 N 
ATOM     92  CA  ALA A  13     -40.520 -20.846  13.901  1.00  0.00    +0.173 C 
ATOM     93  C   ALA A  13     -39.916 -20.697  12.500  1.00  0.00    +0.262 C 
ATOM     94  O   ALA A  13     -38.716 -20.443  12.352  1.00  0.00    -0.271 OA
ATOM     95  CB  ALA A  13     -40.823 -19.463  14.489  1.00  0.00    +0.033 C 
ATOM     96  N   GLU A  14     -40.745 -20.821  11.472  1.00  0.00    -0.196 N 
ATOM     97  CA  GLU A  14     -40.421 -20.270  10.161  1.00  0.00    +0.173 C 
ATOM     98  C   GLU A  14     -40.801 -18.795  10.112  1.00  0.00    +0.262 C 
ATOM     99  O   GLU A  14     -41.838 -18.384  10.641  1.00  0.00    -0.271 OA
ATOM    100  CB  GLU A  14     -41.148 -21.052   9.066  1.00  0.00    +0.043 C 
ATOM    101  CG  GLU A  14     -40.938 -20.440   7.673  1.00  0.00    +0.116 C 
ATOM    102  CD  GLU A  14     -41.523 -21.299   6.554  1.00  0.00    +0.365 C 
ATOM    103  OE1 GLU A  14     -42.424 -22.130   6.814  1.00  0.00    -0.246 OA
ATOM    104  OE2 GLU A  14     -41.102 -21.135   5.385  1.00  0.00    -0.246 OA
ATOM    105  N   SER A  15     -39.998 -18.012   9.412  1.00  0.00    -0.194 N 
ATOM    106  CA  SER A  15     -40.427 -16.714   8.933  1.00  0.00    +0.205 C 
ATOM    107  C   SER A  15     -40.707 -16.740   7.428  1.00  0.00    +0.264 C 
ATOM    108  O   SER A  15     -40.056 -17.463   6.669  1.00  0.00    -0.271 OA
ATOM    109  CB  SER A  15     -39.339 -15.734   9.278  1.00  0.00    +0.213 C 
ATOM    110  OG  SER A  15     -38.297 -15.816   8.316  1.00  0.00    -0.218 OA
ATOM    111  N   SER A  16     -41.628 -15.886   6.982  1.00  0.00    -0.194 N 
ATOM    112  CA  SER A  16     -41.410 -15.126   5.740  1.00  0.00    +0.205 C 
ATOM    113  C   SER A  16     -40.397 -13.997   5.949  1.00  0.00    +0.264 C 
ATOM    114  O   SER A  16     -39.865 -13.438   4.991  1.00  0.00    -0.271 OA
ATOM    115  CB  SER A  16     -42.723 -14.512   5.249  1.00  0.00    +0.213 C 
ATOM    116  OG  SER A  16     -43.555 -15.521   4.710  1.00  0.00    -0.218 OA
ATOM    117  N   ASP A  17     -40.152 -13.634   7.206  1.00  0.00    -0.196 N 
ATOM    118  CA  ASP A  17     -39.471 -12.416   7.590  1.00  0.00    +0.184 C 
ATOM    119  C   ASP A  17     -38.089 -12.608   8.227  1.00  0.00    +0.262 C 
ATOM    120  O   ASP A  17     -37.814 -13.510   8.995  1.00  0.00    -0.271 OA
ATOM    121  CB  ASP A  17     -40.380 -11.607   8.520  1.00  0.00    +0.145 C 
ATOM    122  CG  ASP A  17     -41.223 -10.570   7.777  1.00  0.00    +0.367 C 
ATOM    123  OD1 ASP A  17     -40.734  -9.931   6.817  1.00  0.00    -0.246 OA
ATOM    124  OD2 ASP A  17     -42.393 -10.380   8.169  1.00  0.00    -0.246 OA
ATOM    125  N   LYS A  18     -37.169 -11.694   8.005  1.00  0.00    -0.196 N 
ATOM    126  CA  LYS A  18     -37.404 -10.400   7.357  1.00  0.00    +0.173 C 
ATOM    127  C   LYS A  18     -36.697 -10.308   6.023  1.00  0.00    +0.262 C 
ATOM    128  O   LYS A  18     -36.096  -9.277   5.721  1.00  0.00    -0.271 OA
ATOM    129  CB  LYS A  18     -37.035  -9.275   8.318  1.00  0.00    +0.031 C 
ATOM    130  CG  LYS A  18     -38.147  -8.974   9.317  1.00  0.00    +0.004 C 
ATOM    131  CD  LYS A  18     -37.752  -7.756  10.155  1.00  0.00    +0.021 C 
ATOM    132  CE  LYS A  18     -38.988  -6.929  10.483  1.00  0.00    +0.109 C 
ATOM    133  NZ  LYS A  18     -38.858  -5.513  10.104  1.00  0.00    -0.131 NA
ATOM    134  N   LEU A  19     -36.691 -11.400   5.258  1.00  0.00    -0.196 N 
ATOM    135  CA  LEU A  19     -35.711 -11.567   4.192  1.00  0.00    +0.173 C 
ATOM    136  C   LEU A  19     -35.880 -10.486   3.119  1.00  0.00    +0.262 C 
ATOM    137  O   LEU A  19     -36.994 -10.052   2.826  1.00  0.00    -0.271 OA
ATOM    138  CB  LEU A  19     -35.815 -12.970   3.579  1.00  0.00    +0.031 C 
ATOM    139  CG  LEU A  19     -34.516 -13.517   2.945  1.00  0.00    +0.002 C 
ATOM    140  CD1 LEU A  19     -33.476 -12.517   2.445  1.00  0.00    +0.000 C 
ATOM    141  CD2 LEU A  19     -34.847 -14.305   1.683  1.00  0.00    +0.000 C 
ATOM    142  N   ARG A  20     -34.768 -10.033   2.548  1.00  0.00    -0.196 N 
ATOM    143  CA  ARG A  20     -34.711  -8.919   1.620  1.00  0.00    +0.173 C 
ATOM    144  C   ARG A  20     -35.578  -9.133   0.387  1.00  0.00    +0.262 C 
ATOM    145  O   ARG A  20     -36.563  -8.423   0.200  1.00  0.00    -0.271 OA
ATOM    146  CB  ARG A  20     -33.247  -8.635   1.251  1.00  0.00    +0.033 C 
ATOM    147  CG  ARG A  20     -33.131  -7.402   0.342  1.00  0.00    +0.029 C 
ATOM    148  CD  ARG A  20     -31.677  -6.970   0.165  1.00  0.00    +0.129 C 
ATOM    149  NE  ARG A  20     -30.861  -8.019  -0.481  1.00  0.00    -0.234 NA
ATOM    150  CZ  ARG A  20     -29.651  -8.398  -0.115  1.00  0.00    +0.284 C 
ATOM    151  NH1 ARG A  20     -29.002  -7.807   0.849  1.00  0.00    -0.104 N 
ATOM    152  NH2 ARG A  20     -29.064  -9.392  -0.720  1.00  0.00    -0.104 N 
ATOM    153  N   ARG A  21     -35.138 -10.037  -0.486  1.00  0.00    -0.194 N 
ATOM    154  CA  ARG A  21     -35.147  -9.794  -1.936  1.00  0.00    +0.198 C 
ATOM    155  C   ARG A  21     -36.248 -10.538  -2.670  1.00  0.00    +0.384 C 
ATOM    156  O   ARG A  21     -36.655 -10.078  -3.753  1.00  0.00    -0.244 OA
ATOM    157  CB  ARG A  21     -33.754 -10.127  -2.486  1.00  0.00    +0.035 C 
ATOM    158  CG  ARG A  21     -33.593  -9.730  -3.960  1.00  0.00    +0.029 C 
ATOM    159  CD  ARG A  21     -32.232  -9.079  -4.194  1.00  0.00    +0.129 C 
ATOM    160  NE  ARG A  21     -31.917  -9.007  -5.623  1.00  0.00    -0.234 NA
ATOM    161  CZ  ARG A  21     -30.934  -8.313  -6.155  1.00  0.00    +0.284 C 
ATOM    162  NH1 ARG A  21     -29.912  -7.896  -5.460  1.00  0.00    -0.104 N 
ATOM    163  NH2 ARG A  21     -30.984  -8.004  -7.417  1.00  0.00    -0.104 N 
ATOM    164  OXT ARG A  21     -36.707 -11.586  -2.176  1.00  0.00    -0.244 OA
ATOM    165  H   ASP A   1     -30.389 -31.946  25.717  1.00  0.00    +0.000 HD
ATOM    166  H   ASP A   1     -31.344 -30.821  24.943  1.00  0.00    +0.000 HD
ATOM    167  H   ASP A   1     -35.453 -32.111  22.938  1.00  0.00    +0.000 HD
ATOM    168  H   LYS A   2     -33.202 -34.753  26.474  1.00  0.00    +0.000 HD
ATOM    169  H   LYS A   2     -35.998 -36.509  29.678  1.00  0.00    +0.000 HD
ATOM    170  H   LYS A   2     -36.159 -34.853  29.745  1.00  0.00    +0.000 HD
ATOM    171  H   LEU A   3     -31.325 -38.910  25.129  1.00  0.00    +0.000 HD
ATOM    172  H   ALA A   4     -31.926 -37.174  20.467  1.00  0.00    +0.000 HD
ATOM    173  H   VAL A   5     -28.552 -37.264  22.496  1.00  0.00    +0.000 HD
ATOM    174  H   THR A   6     -28.058 -34.363  19.197  1.00  0.00    +0.000 HD
ATOM    175  H   THR A   6     -27.622 -32.727  17.610  1.00  0.00    +0.000 HD
ATOM    176  H   ALA A   7     -28.393 -32.618  21.115  1.00  0.00    +0.000 HD
ATOM    177  H   LEU A   8     -27.182 -28.133  20.108  1.00  0.00    +0.000 HD
ATOM    178  H   LEU A   9     -31.573 -27.565  21.276  1.00  0.00    +0.000 HD
ATOM    179  H   VAL A  10     -32.262 -25.369  17.335  1.00  0.00    +0.000 HD
ATOM    180  H   VAL A  11     -34.686 -22.047  18.397  1.00  0.00    +0.000 HD
ATOM    181  H   PHE A  12     -36.855 -24.487  15.218  1.00  0.00    +0.000 HD
ATOM    182  H   ALA A  13     -39.101 -21.055  15.473  1.00  0.00    +0.000 HD
ATOM    183  H   GLU A  14     -41.599 -21.295  11.598  1.00  0.00    +0.000 HD
ATOM    184  H   GLU A  14     -42.724 -22.236   7.696  1.00  0.00    +0.000 HD
ATOM    185  H   SER A  15     -39.084 -18.318   9.211  1.00  0.00    +0.000 HD
ATOM    186  H   SER A  15     -38.651 -15.605   7.438  1.00  0.00    +0.000 HD
ATOM    187  H   SER A  16     -42.464 -15.763   7.489  1.00  0.00    +0.000 HD
ATOM    188  H   SER A  16     -43.106 -15.946   3.963  1.00  0.00    +0.000 HD
ATOM    189  H   ASP A  17     -40.456 -14.235   7.924  1.00  0.00    +0.000 HD
ATOM    190  H   ASP A  17     -42.731 -10.874   8.890  1.00  0.00    +0.000 HD
ATOM    191  H   LYS A  18     -36.250 -11.895   8.297  1.00  0.00    +0.000 HD
ATOM    192  H   LYS A  18     -38.090  -5.091  10.625  1.00  0.00    +0.000 HD
ATOM    193  H   LYS A  18     -39.725  -5.021  10.320  1.00  0.00    +0.000 HD
ATOM    194  H   LEU A  19     -37.359 -12.106   5.416  1.00  0.00    +0.000 HD
ATOM    195  H   ARG A  20     -33.923 -10.485   2.770  1.00  0.00    +0.000 HD
ATOM    196  H   ARG A  20     -28.100  -8.115   1.097  1.00  0.00    +0.000 HD
ATOM    197  H   ARG A  20     -29.414  -7.051   1.329  1.00  0.00    +0.000 HD
ATOM    198  H   ARG A  20     -28.161  -9.673  -0.444  1.00  0.00    +0.000 HD
ATOM    199  H   ARG A  20     -29.523  -9.862  -1.453  1.00  0.00    +0.000 HD
ATOM    200  H   ARG A  21     -34.796 -10.897  -0.150  1.00  0.00    +0.000 HD
ATOM    201  H   ARG A  21     -36.287  -9.286  -4.094  1.00  0.00    +0.000 HD
ATOM    202  H   ARG A  21     -29.197  -7.379  -5.897  1.00  0.00    +0.000 HD
ATOM    203  H   ARG A  21     -29.856  -8.097  -4.498  1.00  0.00    +0.000 HD
ATOM    204  H   ARG A  21     -30.254  -7.486  -7.827  1.00  0.00    +0.000 HD
ATOM    205  H   ARG A  21     -31.751  -8.289  -7.964  1.00  0.00    +0.000 HD
ENDROOT
TORSDOF 0
