REMARK  Name = /var/folders/yp/yjbh3p597675h2qddgqr02y00000gn/T/tmp254t24si.pdb
REMARK     285 UNITARY VALUES FOR THE UNIT CELL AUTOMATICALLY SET
REMARK     285 BY MDANALYSIS PDBWRITER BECAUSE UNIT CELL INFORMATION
REMARK     285 WAS MISSING.
REMARK     285 PROTEIN DATA BANK CONVENTIONS REQUIRE THAT
REMARK     285 CRYST1 RECORD IS INCLUDED, BUT THE VALUES ON
REMARK     285 THIS RECORD ARE MEANINGLESS.
REMARK     285 UNITARY VALUES FOR THE UNIT CELL AUTOMATICALLY SET
REMARK     285 BY MDANALYSIS PDBWRITER BECAUSE UNIT CELL INFORMATION
REMARK     285 WAS MISSING.
REMARK     285 PROTEIN DATA BANK CONVENTIONS REQUIRE THAT
REMARK     285 CRYST1 RECORD IS INCLUDED, BUT THE VALUES ON
REMARK     285 THIS RECORD ARE MEANINGLESS.
REMARK                            x       y       z     vdW  Elec       q    Type
REMARK                         _______ _______ _______ _____ _____    ______ ____
ROOT
ATOM      1  N   ASP A   1     -40.104   9.378 -33.825  1.00  0.00    -0.122 NA
ATOM      2  CA  ASP A   1     -39.607  10.671 -34.287  1.00  0.00    +0.181 C 
ATOM      3  C   ASP A   1     -39.583  11.682 -33.152  1.00  0.00    +0.260 C 
ATOM      4  O   ASP A   1     -40.441  11.653 -32.270  1.00  0.00    -0.272 OA
ATOM      5  CB  ASP A   1     -40.460  11.205 -35.426  1.00  0.00    +0.142 C 
ATOM      6  CG  ASP A   1     -41.870  11.573 -34.991  1.00  0.00    +0.367 C 
ATOM      7  OD1 ASP A   1     -42.319  11.108 -33.922  1.00  0.00    -0.246 OA
ATOM      8  OD2 ASP A   1     -42.534  12.335 -35.727  1.00  0.00    -0.246 OA
ATOM      9  N   LYS A   2     -38.602  12.579 -33.174  1.00  0.00    -0.197 N 
ATOM     10  CA  LYS A   2     -38.491  13.608 -32.144  1.00  0.00    +0.173 C 
ATOM     11  C   LYS A   2     -39.684  14.548 -32.178  1.00  0.00    +0.262 C 
ATOM     12  O   LYS A   2     -40.234  14.820 -33.245  1.00  0.00    -0.271 OA
ATOM     13  CB  LYS A   2     -37.209  14.409 -32.317  1.00  0.00    +0.031 C 
ATOM     14  CG  LYS A   2     -35.951  13.645 -31.940  1.00  0.00    +0.009 C 
ATOM     15  CD  LYS A   2     -36.234  12.170 -31.709  1.00  0.00    +0.049 C 
ATOM     16  CE  LYS A   2     -35.004  11.385 -31.663  1.00  0.00    +0.096 C 
ATOM     17  NZ  LYS A   2     -34.952  10.059 -31.580  1.00  0.00    -0.151 NA
ATOM     18  N   LEU A   3     -40.086  15.044 -31.011  1.00  0.00    -0.196 N 
ATOM     19  CA  LEU A   3     -40.547  16.424 -30.891  1.00  0.00    +0.173 C 
ATOM     20  C   LEU A   3     -39.381  17.365 -30.639  1.00  0.00    +0.262 C 
ATOM     21  O   LEU A   3     -38.677  17.233 -29.638  1.00  0.00    -0.271 OA
ATOM     22  CB  LEU A   3     -41.558  16.557 -29.764  1.00  0.00    +0.034 C 
ATOM     23  CG  LEU A   3     -42.223  17.927 -29.614  1.00  0.00    +0.032 C 
ATOM     24  CD1 LEU A   3     -42.189  18.679 -30.940  1.00  0.00    +0.003 C 
ATOM     25  CD2 LEU A   3     -41.342  18.863 -28.794  1.00  0.00    +0.144 C 
ATOM     26  N   ALA A   4     -39.175  18.316 -31.545  1.00  0.00    -0.196 N 
ATOM     27  CA  ALA A   4     -38.173  19.359 -31.341  1.00  0.00    +0.173 C 
ATOM     28  C   ALA A   4     -38.633  20.360 -30.295  1.00  0.00    +0.261 C 
ATOM     29  O   ALA A   4     -37.817  21.053 -29.688  1.00  0.00    -0.271 OA
ATOM     30  CB  ALA A   4     -37.875  20.084 -32.644  1.00  0.00    +0.033 C 
ATOM     31  N   VAL A   5     -39.944  20.439 -30.081  1.00  0.00    -0.202 N 
ATOM     32  CA  VAL A   5     -40.491  21.258 -29.003  1.00  0.00    +0.139 C 
ATOM     33  C   VAL A   5     -40.854  20.375 -27.820  1.00  0.00    +0.210 C 
ATOM     34  O   VAL A   5     -41.612  19.417 -27.966  1.00  0.00    -0.338 OA
ATOM     35  CB  VAL A   5     -41.717  22.038 -29.449  1.00  0.00    +0.024 C 
ATOM     36  CG1 VAL A   5     -41.929  23.263 -28.561  1.00  0.00    +0.002 C 
ATOM     37  CG2 VAL A   5     -41.545  22.523 -30.887  1.00  0.00    +0.002 C 
ATOM     38  N   THR A   6     -40.314  20.696 -26.648  1.00  0.00    -0.180 NA
ATOM     39  CA  THR A   6     -41.112  20.730 -25.426  1.00  0.00    +0.183 C 
ATOM     40  C   THR A   6     -41.604  22.139 -25.143  1.00  0.00    +0.260 C 
ATOM     41  O   THR A   6     -42.582  22.326 -24.420  1.00  0.00    -0.272 OA
ATOM     42  CB  THR A   6     -40.320  20.220 -24.233  1.00  0.00    +0.177 C 
ATOM     43  OG1 THR A   6     -40.042  18.828 -24.415  1.00  0.00    -0.221 OA
ATOM     44  CG2 THR A   6     -41.100  20.407 -22.931  1.00  0.00    +0.038 C 
ATOM     45  N   ALA A   7     -40.927  23.132 -25.712  1.00  0.00    -0.197 N 
ATOM     46  CA  ALA A   7     -39.772  23.739 -25.058  1.00  0.00    +0.173 C 
ATOM     47  C   ALA A   7     -40.186  24.485 -23.800  1.00  0.00    +0.262 C 
ATOM     48  O   ALA A   7     -41.260  25.082 -23.754  1.00  0.00    -0.271 OA
ATOM     49  CB  ALA A   7     -39.055  24.692 -26.000  1.00  0.00    +0.033 C 
ATOM     50  N   LEU A   8     -39.333  24.454 -22.779  1.00  0.00    -0.196 N 
ATOM     51  CA  LEU A   8     -39.111  25.627 -21.937  1.00  0.00    +0.173 C 
ATOM     52  C   LEU A   8     -38.044  26.528 -22.536  1.00  0.00    +0.262 C 
ATOM     53  O   LEU A   8     -37.361  26.142 -23.483  1.00  0.00    -0.271 OA
ATOM     54  CB  LEU A   8     -38.699  25.212 -20.535  1.00  0.00    +0.031 C 
ATOM     55  CG  LEU A   8     -39.750  24.457 -19.720  1.00  0.00    +0.002 C 
ATOM     56  CD1 LEU A   8     -39.224  24.166 -18.320  1.00  0.00    +0.000 C 
ATOM     57  CD2 LEU A   8     -39.889  23.023 -20.219  1.00  0.00    +0.000 C 
ATOM     58  N   LEU A   9     -37.898  27.728 -21.982  1.00  0.00    -0.196 N 
ATOM     59  CA  LEU A   9     -37.001  28.726 -22.556  1.00  0.00    +0.173 C 
ATOM     60  C   LEU A   9     -35.549  28.309 -22.389  1.00  0.00    +0.262 C 
ATOM     61  O   LEU A   9     -35.190  27.682 -21.394  1.00  0.00    -0.271 OA
ATOM     62  CB  LEU A   9     -37.217  30.084 -21.905  1.00  0.00    +0.031 C 
ATOM     63  CG  LEU A   9     -37.433  31.261 -22.858  1.00  0.00    +0.002 C 
ATOM     64  CD1 LEU A   9     -38.639  32.082 -22.418  1.00  0.00    +0.000 C 
ATOM     65  CD2 LEU A   9     -37.962  30.771 -24.203  1.00  0.00    +0.000 C 
ATOM     66  N   VAL A  10     -34.712  28.657 -23.360  1.00  0.00    -0.196 N 
ATOM     67  CA  VAL A  10     -33.297  28.901 -23.096  1.00  0.00    +0.173 C 
ATOM     68  C   VAL A  10     -33.145  30.118 -22.197  1.00  0.00    +0.262 C 
ATOM     69  O   VAL A  10     -33.514  31.227 -22.578  1.00  0.00    -0.271 OA
ATOM     70  CB  VAL A  10     -32.508  29.115 -24.378  1.00  0.00    +0.029 C 
ATOM     71  CG1 VAL A  10     -31.018  29.260 -24.076  1.00  0.00    +0.002 C 
ATOM     72  CG2 VAL A  10     -32.686  27.924 -25.317  1.00  0.00    +0.002 C 
ATOM     73  N   VAL A  11     -32.599  29.912 -21.001  1.00  0.00    -0.196 N 
ATOM     74  CA  VAL A  11     -31.485  30.725 -20.524  1.00  0.00    +0.173 C 
ATOM     75  C   VAL A  11     -30.239  30.420 -21.340  1.00  0.00    +0.262 C 
ATOM     76  O   VAL A  11     -29.917  29.256 -21.577  1.00  0.00    -0.271 OA
ATOM     77  CB  VAL A  11     -31.197  30.485 -19.051  1.00  0.00    +0.029 C 
ATOM     78  CG1 VAL A  11     -30.147  31.468 -18.540  1.00  0.00    +0.002 C 
ATOM     79  CG2 VAL A  11     -32.466  30.680 -18.224  1.00  0.00    +0.002 C 
ATOM     80  N   PHE A  12     -29.536  31.464 -21.770  1.00  0.00    -0.196 N 
ATOM     81  CA  PHE A  12     -28.078  31.439 -21.794  1.00  0.00    +0.177 C 
ATOM     82  C   PHE A  12     -27.512  31.554 -20.389  1.00  0.00    +0.262 C 
ATOM     83  O   PHE A  12     -27.936  32.410 -19.613  1.00  0.00    -0.271 OA
ATOM     84  CB  PHE A  12     -27.530  32.567 -22.654  1.00  0.00    +0.057 C 
ATOM     85  CG  PHE A  12     -26.424  33.343 -22.005  1.00  0.00    -0.020 A 
ATOM     86  CD1 PHE A  12     -25.323  32.675 -21.477  1.00  0.00    -0.004 A 
ATOM     87  CE1 PHE A  12     -24.298  33.395 -20.875  1.00  0.00    -0.000 A 
ATOM     88  CD2 PHE A  12     -26.496  34.729 -21.929  1.00  0.00    -0.004 A 
ATOM     89  CE2 PHE A  12     -25.471  35.448 -21.328  1.00  0.00    -0.000 A 
ATOM     90  CZ  PHE A  12     -24.371  34.781 -20.801  1.00  0.00    -0.000 A 
ATOM     91  N   ALA A  13     -26.556  30.691 -20.056  1.00  0.00    -0.196 N 
ATOM     92  CA  ALA A  13     -25.287  30.647 -20.777  1.00  0.00    +0.173 C 
ATOM     93  C   ALA A  13     -25.388  29.764 -22.010  1.00  0.00    +0.262 C 
ATOM     94  O   ALA A  13     -26.151  28.801 -22.027  1.00  0.00    -0.271 OA
ATOM     95  CB  ALA A  13     -24.174  30.137 -19.878  1.00  0.00    +0.033 C 
ATOM     96  N   GLU A  14     -24.618  30.093 -23.043  1.00  0.00    -0.196 N 
ATOM     97  CA  GLU A  14     -23.643  29.155 -23.593  1.00  0.00    +0.173 C 
ATOM     98  C   GLU A  14     -22.400  29.083 -22.723  1.00  0.00    +0.262 C 
ATOM     99  O   GLU A  14     -22.164  29.962 -21.896  1.00  0.00    -0.271 OA
ATOM    100  CB  GLU A  14     -23.250  29.549 -25.008  1.00  0.00    +0.043 C 
ATOM    101  CG  GLU A  14     -24.363  29.368 -26.027  1.00  0.00    +0.116 C 
ATOM    102  CD  GLU A  14     -23.964  29.785 -27.433  1.00  0.00    +0.365 C 
ATOM    103  OE1 GLU A  14     -22.764  30.034 -27.675  1.00  0.00    -0.246 OA
ATOM    104  OE2 GLU A  14     -24.860  29.862 -28.301  1.00  0.00    -0.246 OA
ATOM    105  N   SER A  15     -21.602  28.033 -22.909  1.00  0.00    -0.194 N 
ATOM    106  CA  SER A  15     -20.179  28.097 -22.591  1.00  0.00    +0.205 C 
ATOM    107  C   SER A  15     -19.398  28.790 -23.696  1.00  0.00    +0.264 C 
ATOM    108  O   SER A  15     -19.736  28.667 -24.872  1.00  0.00    -0.271 OA
ATOM    109  CB  SER A  15     -19.617  26.702 -22.372  1.00  0.00    +0.213 C 
ATOM    110  OG  SER A  15     -19.509  26.004 -23.600  1.00  0.00    -0.218 OA
ATOM    111  N   SER A  16     -18.353  29.520 -23.319  1.00  0.00    -0.193 N 
ATOM    112  CA  SER A  16     -17.175  29.659 -24.170  1.00  0.00    +0.207 C 
ATOM    113  C   SER A  16     -16.428  28.342 -24.297  1.00  0.00    +0.264 C 
ATOM    114  O   SER A  16     -15.746  28.105 -25.293  1.00  0.00    -0.271 OA
ATOM    115  CB  SER A  16     -16.238  30.724 -23.621  1.00  0.00    +0.226 C 
ATOM    116  OG  SER A  16     -15.829  30.401 -22.304  1.00  0.00    -0.167 OA
ATOM    117  N   ASP A  17     -16.554  27.485 -23.289  1.00  0.00    -0.196 N 
ATOM    118  CA  ASP A  17     -15.448  27.219 -22.373  1.00  0.00    +0.184 C 
ATOM    119  C   ASP A  17     -14.842  25.850 -22.635  1.00  0.00    +0.262 C 
ATOM    120  O   ASP A  17     -14.860  24.980 -21.764  1.00  0.00    -0.271 OA
ATOM    121  CB  ASP A  17     -15.907  27.302 -20.926  1.00  0.00    +0.144 C 
ATOM    122  CG  ASP A  17     -16.611  28.608 -20.599  1.00  0.00    +0.354 C 
ATOM    123  OD1 ASP A  17     -16.503  29.573 -21.387  1.00  0.00    -0.295 OA
ATOM    124  OD2 ASP A  17     -17.278  28.673 -19.544  1.00  0.00    -0.247 OA
ATOM    125  N   LYS A  18     -14.302  25.657 -23.835  1.00  0.00    -0.196 N 
ATOM    126  CA  LYS A  18     -13.821  24.341 -24.249  1.00  0.00    +0.173 C 
ATOM    127  C   LYS A  18     -12.468  24.447 -24.936  1.00  0.00    +0.262 C 
ATOM    128  O   LYS A  18     -12.089  25.519 -25.405  1.00  0.00    -0.271 OA
ATOM    129  CB  LYS A  18     -14.813  23.670 -25.185  1.00  0.00    +0.031 C 
ATOM    130  CG  LYS A  18     -15.873  22.849 -24.469  1.00  0.00    +0.009 C 
ATOM    131  CD  LYS A  18     -17.210  23.571 -24.422  1.00  0.00    +0.049 C 
ATOM    132  CE  LYS A  18     -18.259  22.727 -23.858  1.00  0.00    +0.096 C 
ATOM    133  NZ  LYS A  18     -19.532  23.087 -23.721  1.00  0.00    -0.151 NA
ATOM    134  N   LEU A  19     -11.740  23.334 -24.994  1.00  0.00    -0.196 N 
ATOM    135  CA  LEU A  19     -11.282  22.661 -23.784  1.00  0.00    +0.173 C 
ATOM    136  C   LEU A  19      -9.773  22.753 -23.649  1.00  0.00    +0.262 C 
ATOM    137  O   LEU A  19      -9.126  21.810 -23.195  1.00  0.00    -0.271 OA
ATOM    138  CB  LEU A  19     -11.703  21.199 -23.790  1.00  0.00    +0.031 C 
ATOM    139  CG  LEU A  19     -13.041  20.880 -23.122  1.00  0.00    +0.002 C 
ATOM    140  CD1 LEU A  19     -12.869  19.765 -22.097  1.00  0.00    +0.000 C 
ATOM    141  CD2 LEU A  19     -13.969  20.161 -24.095  1.00  0.00    +0.000 C 
ATOM    142  N   ARG A  20      -9.206  23.890 -24.043  1.00  0.00    -0.196 N 
ATOM    143  CA  ARG A  20      -7.760  24.003 -24.210  1.00  0.00    +0.173 C 
ATOM    144  C   ARG A  20      -7.064  24.105 -22.863  1.00  0.00    +0.262 C 
ATOM    145  O   ARG A  20      -7.440  24.923 -22.025  1.00  0.00    -0.271 OA
ATOM    146  CB  ARG A  20      -7.404  25.212 -25.057  1.00  0.00    +0.033 C 
ATOM    147  CG  ARG A  20      -5.944  25.262 -25.475  1.00  0.00    +0.029 C 
ATOM    148  CD  ARG A  20      -5.569  26.615 -26.058  1.00  0.00    +0.129 C 
ATOM    149  NE  ARG A  20      -6.249  26.863 -27.326  1.00  0.00    -0.234 NA
ATOM    150  CZ  ARG A  20      -7.568  26.941 -27.479  1.00  0.00    +0.284 C 
ATOM    151  NH1 ARG A  20      -8.383  26.723 -26.450  1.00  0.00    -0.104 N 
ATOM    152  NH2 ARG A  20      -8.076  27.240 -28.671  1.00  0.00    -0.104 N 
ATOM    153  N   ARG A  21      -6.048  23.274 -22.651  1.00  0.00    -0.194 N 
ATOM    154  CA  ARG A  21      -4.888  23.675 -21.860  1.00  0.00    +0.196 C 
ATOM    155  C   ARG A  21      -3.940  24.533 -22.681  1.00  0.00    +0.362 C 
ATOM    156  O   ARG A  21      -3.554  24.156 -23.786  1.00  0.00    -0.333 OA
ATOM    157  CB  ARG A  21      -4.144  22.458 -21.333  1.00  0.00    +0.035 C 
ATOM    158  CG  ARG A  21      -3.639  21.526 -22.421  1.00  0.00    +0.030 C 
ATOM    159  CD  ARG A  21      -2.416  22.091 -23.125  1.00  0.00    +0.148 C 
ATOM    160  NE  ARG A  21      -2.778  22.808 -24.344  1.00  0.00    -0.155 N 
ATOM    161  CZ  ARG A  21      -2.175  23.908 -24.784  1.00  0.00    +0.298 C 
ATOM    162  NH1 ARG A  21      -1.181  24.459 -24.093  1.00  0.00    -0.103 NA
ATOM    163  NH2 ARG A  21      -2.571  24.463 -25.926  1.00  0.00    -0.103 N 
ATOM    164  OXT ARG A  21      -3.544  25.615 -22.248  1.00  0.00    -0.246 OA
ATOM    165  H   ASP A   1     -39.517   9.040 -33.062  1.00  0.00    +0.000 HD
ATOM    166  H   ASP A   1     -40.079   8.709 -34.595  1.00  0.00    +0.000 HD
ATOM    167  H   ASP A   1     -42.161  12.662 -36.522  1.00  0.00    +0.000 HD
ATOM    168  H   LYS A   2     -37.937  12.548 -33.899  1.00  0.00    +0.000 HD
ATOM    169  H   LYS A   2     -35.786   9.535 -31.546  1.00  0.00    +0.000 HD
ATOM    170  H   LEU A   3     -40.071  14.469 -30.212  1.00  0.00    +0.000 HD
ATOM    171  H   ALA A   4     -39.710  18.317 -32.372  1.00  0.00    +0.000 HD
ATOM    172  H   VAL A   5     -40.559  19.934 -30.661  1.00  0.00    +0.000 HD
ATOM    173  H   THR A   6     -39.563  20.026 -26.483  1.00  0.00    +0.000 HD
ATOM    174  H   THR A   6     -40.876  18.336 -24.471  1.00  0.00    +0.000 HD
ATOM    175  H   ALA A   7     -41.211  23.465 -26.593  1.00  0.00    +0.000 HD
ATOM    176  H   LEU A   8     -38.840  23.624 -22.588  1.00  0.00    +0.000 HD
ATOM    177  H   LEU A   9     -38.406  27.948 -21.168  1.00  0.00    +0.000 HD
ATOM    178  H   VAL A  10     -35.053  28.753 -24.279  1.00  0.00    +0.000 HD
ATOM    179  H   VAL A  11     -32.953  29.195 -20.426  1.00  0.00    +0.000 HD
ATOM    180  H   PHE A  12     -30.009  32.270 -22.078  1.00  0.00    +0.000 HD
ATOM    181  H   ALA A  13     -26.707  30.068 -19.308  1.00  0.00    +0.000 HD
ATOM    182  H   GLU A  14     -24.707  30.988 -23.446  1.00  0.00    +0.000 HD
ATOM    183  H   GLU A  14     -25.749  29.666 -28.075  1.00  0.00    +0.000 HD
ATOM    184  H   SER A  15     -21.980  27.198 -23.267  1.00  0.00    +0.000 HD
ATOM    185  H   SER A  15     -20.388  25.919 -24.002  1.00  0.00    +0.000 HD
ATOM    186  H   SER A  16     -18.375  29.977 -22.448  1.00  0.00    +0.000 HD
ATOM    187  H   ASP A  17     -17.412  27.020 -23.156  1.00  0.00    +0.000 HD
ATOM    188  H   LYS A  18     -14.225  26.416 -24.457  1.00  0.00    +0.000 HD
ATOM    189  H   LYS A  18     -19.824  23.981 -24.010  1.00  0.00    +0.000 HD
ATOM    190  H   LEU A  19     -11.506  22.957 -25.873  1.00  0.00    +0.000 HD
ATOM    191  H   ARG A  20      -9.774  24.673 -24.226  1.00  0.00    +0.000 HD
ATOM    192  H   ARG A  20      -8.011  26.501 -25.566  1.00  0.00    +0.000 HD
ATOM    193  H   ARG A  20      -9.358  26.783 -26.574  1.00  0.00    +0.000 HD
ATOM    194  H   ARG A  20      -9.052  27.299 -28.790  1.00  0.00    +0.000 HD
ATOM    195  H   ARG A  20      -7.477  27.402 -29.436  1.00  0.00    +0.000 HD
ATOM    196  H   ARG A  21      -6.078  22.369 -23.038  1.00  0.00    +0.000 HD
ATOM    197  H   ARG A  21      -0.884  24.052 -23.248  1.00  0.00    +0.000 HD
ATOM    198  H   ARG A  21      -2.128  25.277 -26.258  1.00  0.00    +0.000 HD
ATOM    199  H   ARG A  21      -3.306  24.059 -26.441  1.00  0.00    +0.000 HD
ENDROOT
TORSDOF 0
