REMARK  Name = /var/folders/yp/yjbh3p597675h2qddgqr02y00000gn/T/tmp5ks7q80f.pdb
REMARK     285 UNITARY VALUES FOR THE UNIT CELL AUTOMATICALLY SET
REMARK     285 BY MDANALYSIS PDBWRITER BECAUSE UNIT CELL INFORMATION
REMARK     285 WAS MISSING.
REMARK     285 PROTEIN DATA BANK CONVENTIONS REQUIRE THAT
REMARK     285 CRYST1 RECORD IS INCLUDED, BUT THE VALUES ON
REMARK     285 THIS RECORD ARE MEANINGLESS.
REMARK     285 UNITARY VALUES FOR THE UNIT CELL AUTOMATICALLY SET
REMARK     285 BY MDANALYSIS PDBWRITER BECAUSE UNIT CELL INFORMATION
REMARK     285 WAS MISSING.
REMARK     285 PROTEIN DATA BANK CONVENTIONS REQUIRE THAT
REMARK     285 CRYST1 RECORD IS INCLUDED, BUT THE VALUES ON
REMARK     285 THIS RECORD ARE MEANINGLESS.
REMARK                            x       y       z     vdW  Elec       q    Type
REMARK                         _______ _______ _______ _____ _____    ______ ____
ROOT
ATOM      1  N   ASP A   1       4.907   8.440 -20.533  1.00  0.00    -0.123 NA
ATOM      2  CA  ASP A   1       3.595   8.964 -20.166  1.00  0.00    +0.174 C 
ATOM      3  C   ASP A   1       2.500   8.337 -21.013  1.00  0.00    +0.259 C 
ATOM      4  O   ASP A   1       2.763   7.844 -22.108  1.00  0.00    -0.272 OA
ATOM      5  CB  ASP A   1       3.552  10.476 -20.319  1.00  0.00    +0.088 C 
ATOM      6  CG  ASP A   1       4.020  11.214 -19.075  1.00  0.00    +0.220 C 
ATOM      7  OD1 ASP A   1       4.185  10.576 -18.014  1.00  0.00    -0.323 OA
ATOM      8  OD2 ASP A   1       4.225  12.444 -19.161  1.00  0.00    -0.326 OA
ATOM      9  N   LYS A   2       1.270   8.355 -20.506  1.00  0.00    -0.197 N 
ATOM     10  CA  LYS A   2       0.173   7.641 -21.152  1.00  0.00    +0.173 C 
ATOM     11  C   LYS A   2      -0.469   8.489 -22.237  1.00  0.00    +0.261 C 
ATOM     12  O   LYS A   2      -0.652   9.693 -22.060  1.00  0.00    -0.271 OA
ATOM     13  CB  LYS A   2      -0.882   7.236 -20.135  1.00  0.00    +0.031 C 
ATOM     14  CG  LYS A   2      -1.800   6.122 -20.610  1.00  0.00    +0.006 C 
ATOM     15  CD  LYS A   2      -3.095   6.667 -21.189  1.00  0.00    +0.048 C 
ATOM     16  CE  LYS A   2      -2.846   7.576 -22.305  1.00  0.00    +0.195 C 
ATOM     17  NZ  LYS A   2      -3.791   8.227 -22.978  1.00  0.00    -0.153 NA
ATOM     18  N   LEU A   3      -0.811   7.864 -23.359  1.00  0.00    -0.200 N 
ATOM     19  CA  LEU A   3      -1.866   8.380 -24.227  1.00  0.00    +0.152 C 
ATOM     20  C   LEU A   3      -3.237   7.964 -23.719  1.00  0.00    +0.240 C 
ATOM     21  O   LEU A   3      -3.425   6.824 -23.293  1.00  0.00    -0.314 OA
ATOM     22  CB  LEU A   3      -1.682   7.885 -25.652  1.00  0.00    +0.027 C 
ATOM     23  CG  LEU A   3      -1.454   8.963 -26.714  1.00  0.00    +0.002 C 
ATOM     24  CD1 LEU A   3      -1.660   8.382 -28.108  1.00  0.00    +0.000 C 
ATOM     25  CD2 LEU A   3       0.029   9.304 -26.822  1.00  0.00    +0.000 C 
ATOM     26  N   ALA A   4      -4.194   8.885 -23.762  1.00  0.00    -0.169 NA
ATOM     27  CA  ALA A   4      -3.954  10.253 -23.312  1.00  0.00    +0.154 C 
ATOM     28  C   ALA A   4      -3.815  10.315 -21.801  1.00  0.00    +0.258 C 
ATOM     29  O   ALA A   4      -3.376  11.326 -21.254  1.00  0.00    -0.272 OA
ATOM     30  CB  ALA A   4      -5.078  11.174 -23.758  1.00  0.00    +0.029 C 
ATOM     31  N   VAL A   5      -4.188   9.234 -21.120  1.00  0.00    -0.197 N 
ATOM     32  CA  VAL A   5      -5.201   9.307 -20.073  1.00  0.00    +0.173 C 
ATOM     33  C   VAL A   5      -4.543   9.653 -18.746  1.00  0.00    +0.262 C 
ATOM     34  O   VAL A   5      -3.537   9.054 -18.372  1.00  0.00    -0.271 OA
ATOM     35  CB  VAL A   5      -5.967   8.003 -19.933  1.00  0.00    +0.029 C 
ATOM     36  CG1 VAL A   5      -5.258   6.876 -20.682  1.00  0.00    +0.002 C 
ATOM     37  CG2 VAL A   5      -6.069   7.599 -18.463  1.00  0.00    +0.002 C 
ATOM     38  N   THR A   6      -5.111  10.622 -18.034  1.00  0.00    -0.194 N 
ATOM     39  CA  THR A   6      -5.252  10.518 -16.585  1.00  0.00    +0.203 C 
ATOM     40  C   THR A   6      -6.549  11.165 -16.123  1.00  0.00    +0.264 C 
ATOM     41  O   THR A   6      -7.483  11.318 -16.907  1.00  0.00    -0.271 OA
ATOM     42  CB  THR A   6      -4.079  11.166 -15.868  1.00  0.00    +0.181 C 
ATOM     43  OG1 THR A   6      -2.875  10.490 -16.232  1.00  0.00    -0.221 OA
ATOM     44  CG2 THR A   6      -4.253  11.093 -14.349  1.00  0.00    +0.038 C 
ATOM     45  N   ALA A   7      -6.605  11.542 -14.849  1.00  0.00    -0.196 N 
ATOM     46  CA  ALA A   7      -7.451  12.654 -14.424  1.00  0.00    +0.173 C 
ATOM     47  C   ALA A   7      -6.931  13.975 -14.967  1.00  0.00    +0.262 C 
ATOM     48  O   ALA A   7      -7.660  14.966 -15.000  1.00  0.00    -0.271 OA
ATOM     49  CB  ALA A   7      -7.530  12.724 -12.907  1.00  0.00    +0.033 C 
ATOM     50  N   LEU A   8      -5.672  13.991 -15.394  1.00  0.00    -0.196 N 
ATOM     51  CA  LEU A   8      -4.765  15.082 -15.050  1.00  0.00    +0.173 C 
ATOM     52  C   LEU A   8      -4.857  16.204 -16.071  1.00  0.00    +0.262 C 
ATOM     53  O   LEU A   8      -4.868  15.952 -17.276  1.00  0.00    -0.271 OA
ATOM     54  CB  LEU A   8      -3.331  14.585 -14.968  1.00  0.00    +0.031 C 
ATOM     55  CG  LEU A   8      -2.932  13.892 -13.665  1.00  0.00    +0.002 C 
ATOM     56  CD1 LEU A   8      -1.726  12.989 -13.894  1.00  0.00    +0.000 C 
ATOM     57  CD2 LEU A   8      -3.955  12.825 -13.291  1.00  0.00    +0.000 C 
ATOM     58  N   LEU A   9      -4.922  17.443 -15.591  1.00  0.00    -0.196 N 
ATOM     59  CA  LEU A   9      -4.244  18.552 -16.257  1.00  0.00    +0.173 C 
ATOM     60  C   LEU A   9      -2.812  18.684 -15.765  1.00  0.00    +0.262 C 
ATOM     61  O   LEU A   9      -2.573  18.835 -14.569  1.00  0.00    -0.271 OA
ATOM     62  CB  LEU A   9      -4.986  19.857 -16.018  1.00  0.00    +0.031 C 
ATOM     63  CG  LEU A   9      -5.194  20.748 -17.245  1.00  0.00    +0.002 C 
ATOM     64  CD1 LEU A   9      -3.925  20.792 -18.086  1.00  0.00    +0.000 C 
ATOM     65  CD2 LEU A   9      -5.253  22.217 -16.835  1.00  0.00    +0.000 C 
ATOM     66  N   VAL A  10      -1.856  18.627 -16.689  1.00  0.00    -0.196 N 
ATOM     67  CA  VAL A  10      -0.762  17.667 -16.592  1.00  0.00    +0.173 C 
ATOM     68  C   VAL A  10       0.556  18.404 -16.425  1.00  0.00    +0.262 C 
ATOM     69  O   VAL A  10       1.064  19.000 -17.374  1.00  0.00    -0.271 OA
ATOM     70  CB  VAL A  10      -0.688  16.765 -17.813  1.00  0.00    +0.029 C 
ATOM     71  CG1 VAL A  10       0.251  15.587 -17.558  1.00  0.00    +0.002 C 
ATOM     72  CG2 VAL A  10      -2.069  16.204 -18.146  1.00  0.00    +0.002 C 
ATOM     73  N   VAL A  11       1.114  18.365 -15.218  1.00  0.00    -0.196 N 
ATOM     74  CA  VAL A  11       2.495  17.931 -15.032  1.00  0.00    +0.173 C 
ATOM     75  C   VAL A  11       2.571  16.414 -15.101  1.00  0.00    +0.262 C 
ATOM     76  O   VAL A  11       1.734  15.720 -14.524  1.00  0.00    -0.271 OA
ATOM     77  CB  VAL A  11       3.067  18.408 -13.707  1.00  0.00    +0.029 C 
ATOM     78  CG1 VAL A  11       2.813  19.902 -13.515  1.00  0.00    +0.002 C 
ATOM     79  CG2 VAL A  11       2.409  17.665 -12.546  1.00  0.00    +0.002 C 
ATOM     80  N   PHE A  12       3.574  15.898 -15.805  1.00  0.00    -0.196 N 
ATOM     81  CA  PHE A  12       4.080  14.556 -15.536  1.00  0.00    +0.177 C 
ATOM     82  C   PHE A  12       5.081  14.577 -14.391  1.00  0.00    +0.262 C 
ATOM     83  O   PHE A  12       4.952  13.815 -13.435  1.00  0.00    -0.271 OA
ATOM     84  CB  PHE A  12       4.737  13.965 -16.772  1.00  0.00    +0.056 C 
ATOM     85  CG  PHE A  12       3.850  13.037 -17.546  1.00  0.00    -0.013 C 
ATOM     86  CD1 PHE A  12       3.785  11.691 -17.202  1.00  0.00    +0.003 C 
ATOM     87  CE1 PHE A  12       2.962  10.830 -17.919  1.00  0.00    +0.178 C 
ATOM     88  CD2 PHE A  12       3.091  13.521 -18.605  1.00  0.00    +0.158 C 
ATOM     89  CE2 PHE A  12       2.267  12.660 -19.320  1.00  0.00    +0.005 C 
ATOM     90  CZ  PHE A  12       2.203  11.315 -18.978  1.00  0.00    +0.007 C 
ATOM     91  N   ALA A  13       6.079  15.450 -14.488  1.00  0.00    -0.196 N 
ATOM     92  CA  ALA A  13       7.341  15.095 -15.131  1.00  0.00    +0.173 C 
ATOM     93  C   ALA A  13       7.978  13.891 -14.456  1.00  0.00    +0.262 C 
ATOM     94  O   ALA A  13       8.062  13.834 -13.229  1.00  0.00    -0.271 OA
ATOM     95  CB  ALA A  13       8.311  16.265 -15.099  1.00  0.00    +0.033 C 
ATOM     96  N   GLU A  14       8.427  12.927 -15.255  1.00  0.00    -0.196 N 
ATOM     97  CA  GLU A  14       9.750  12.337 -15.065  1.00  0.00    +0.173 C 
ATOM     98  C   GLU A  14      10.843  13.281 -15.540  1.00  0.00    +0.262 C 
ATOM     99  O   GLU A  14      11.854  13.457 -14.863  1.00  0.00    -0.271 OA
ATOM    100  CB  GLU A  14       9.864  11.014 -15.805  1.00  0.00    +0.043 C 
ATOM    101  CG  GLU A  14       8.851   9.973 -15.358  1.00  0.00    +0.116 C 
ATOM    102  CD  GLU A  14       9.057   8.615 -16.012  1.00  0.00    +0.365 C 
ATOM    103  OE1 GLU A  14      10.165   8.351 -16.526  1.00  0.00    -0.246 OA
ATOM    104  OE2 GLU A  14       8.101   7.809 -16.007  1.00  0.00    -0.246 OA
ATOM    105  N   SER A  15      10.641  13.886 -16.708  1.00  0.00    -0.194 N 
ATOM    106  CA  SER A  15      11.725  14.060 -17.671  1.00  0.00    +0.205 C 
ATOM    107  C   SER A  15      12.854  14.895 -17.086  1.00  0.00    +0.264 C 
ATOM    108  O   SER A  15      12.612  15.799 -16.288  1.00  0.00    -0.271 OA
ATOM    109  CB  SER A  15      11.214  14.718 -18.941  1.00  0.00    +0.213 C 
ATOM    110  OG  SER A  15      11.038  16.111 -18.750  1.00  0.00    -0.218 OA
ATOM    111  N   SER A  16      14.087  14.595 -17.484  1.00  0.00    -0.194 N 
ATOM    112  CA  SER A  16      15.234  14.758 -16.596  1.00  0.00    +0.205 C 
ATOM    113  C   SER A  16      15.558  16.225 -16.376  1.00  0.00    +0.264 C 
ATOM    114  O   SER A  16      16.223  16.579 -15.403  1.00  0.00    -0.271 OA
ATOM    115  CB  SER A  16      16.453  14.047 -17.160  1.00  0.00    +0.213 C 
ATOM    116  OG  SER A  16      16.373  12.652 -16.933  1.00  0.00    -0.218 OA
ATOM    117  N   ASP A  17      15.088  17.082 -17.278  1.00  0.00    -0.196 N 
ATOM    118  CA  ASP A  17      15.943  18.104 -17.875  1.00  0.00    +0.184 C 
ATOM    119  C   ASP A  17      15.950  19.369 -17.032  1.00  0.00    +0.262 C 
ATOM    120  O   ASP A  17      14.943  20.070 -16.951  1.00  0.00    -0.271 OA
ATOM    121  CB  ASP A  17      15.490  18.437 -19.286  1.00  0.00    +0.145 C 
ATOM    122  CG  ASP A  17      15.454  17.223 -20.201  1.00  0.00    +0.367 C 
ATOM    123  OD1 ASP A  17      16.364  16.370 -20.120  1.00  0.00    -0.246 OA
ATOM    124  OD2 ASP A  17      14.505  17.122 -21.009  1.00  0.00    -0.246 OA
ATOM    125  N   LYS A  18      17.086  19.662 -16.404  1.00  0.00    -0.196 N 
ATOM    126  CA  LYS A  18      17.153  20.734 -15.416  1.00  0.00    +0.173 C 
ATOM    127  C   LYS A  18      18.404  21.577 -15.606  1.00  0.00    +0.262 C 
ATOM    128  O   LYS A  18      19.410  21.092 -16.122  1.00  0.00    -0.271 OA
ATOM    129  CB  LYS A  18      17.131  20.171 -14.004  1.00  0.00    +0.031 C 
ATOM    130  CG  LYS A  18      15.755  19.723 -13.543  1.00  0.00    +0.009 C 
ATOM    131  CD  LYS A  18      15.820  18.952 -12.234  1.00  0.00    +0.049 C 
ATOM    132  CE  LYS A  18      14.491  18.580 -11.760  1.00  0.00    +0.096 C 
ATOM    133  NZ  LYS A  18      14.089  18.653 -10.494  1.00  0.00    -0.151 NA
ATOM    134  N   LEU A  19      18.342  22.838 -15.191  1.00  0.00    -0.196 N 
ATOM    135  CA  LEU A  19      19.256  23.854 -15.707  1.00  0.00    +0.173 C 
ATOM    136  C   LEU A  19      20.614  23.755 -15.032  1.00  0.00    +0.262 C 
ATOM    137  O   LEU A  19      20.699  23.471 -13.838  1.00  0.00    -0.271 OA
ATOM    138  CB  LEU A  19      18.685  25.247 -15.496  1.00  0.00    +0.031 C 
ATOM    139  CG  LEU A  19      17.870  25.825 -16.655  1.00  0.00    +0.002 C 
ATOM    140  CD1 LEU A  19      16.503  26.282 -16.163  1.00  0.00    +0.000 C 
ATOM    141  CD2 LEU A  19      17.419  24.714 -17.597  1.00  0.00    +0.000 C 
ATOM    142  N   ARG A  20      21.678  23.987 -15.796  1.00  0.00    -0.196 N 
ATOM    143  CA  ARG A  20      22.952  24.407 -15.218  1.00  0.00    +0.173 C 
ATOM    144  C   ARG A  20      22.872  25.836 -14.706  1.00  0.00    +0.262 C 
ATOM    145  O   ARG A  20      22.570  26.755 -15.464  1.00  0.00    -0.271 OA
ATOM    146  CB  ARG A  20      24.073  24.293 -16.237  1.00  0.00    +0.033 C 
ATOM    147  CG  ARG A  20      25.453  24.578 -15.666  1.00  0.00    +0.029 C 
ATOM    148  CD  ARG A  20      26.527  24.538 -16.740  1.00  0.00    +0.129 C 
ATOM    149  NE  ARG A  20      26.463  25.709 -17.611  1.00  0.00    -0.234 NA
ATOM    150  CZ  ARG A  20      25.934  25.720 -18.832  1.00  0.00    +0.284 C 
ATOM    151  NH1 ARG A  20      25.433  24.607 -19.363  1.00  0.00    -0.104 N 
ATOM    152  NH2 ARG A  20      25.909  26.851 -19.528  1.00  0.00    -0.104 N 
ATOM    153  N   ARG A  21      23.145  26.024 -13.418  1.00  0.00    -0.194 N 
ATOM    154  CA  ARG A  21      23.534  27.336 -12.906  1.00  0.00    +0.198 C 
ATOM    155  C   ARG A  21      25.045  27.494 -12.903  1.00  0.00    +0.384 C 
ATOM    156  O   ARG A  21      25.571  28.484 -13.409  1.00  0.00    -0.244 OA
ATOM    157  CB  ARG A  21      22.998  27.548 -11.499  1.00  0.00    +0.035 C 
ATOM    158  CG  ARG A  21      21.490  27.723 -11.435  1.00  0.00    +0.029 C 
ATOM    159  CD  ARG A  21      21.088  29.187 -11.522  1.00  0.00    +0.129 C 
ATOM    160  NE  ARG A  21      21.093  29.826 -10.209  1.00  0.00    -0.234 NA
ATOM    161  CZ  ARG A  21      20.193  30.712  -9.793  1.00  0.00    +0.284 C 
ATOM    162  NH1 ARG A  21      19.162  31.044 -10.564  1.00  0.00    -0.104 N 
ATOM    163  NH2 ARG A  21      20.328  31.274  -8.595  1.00  0.00    -0.104 N 
ATOM    164  OXT ARG A  21      25.763  26.633 -12.396  1.00  0.00    -0.244 OA
ATOM    165  H   ASP A   1       4.912   7.426 -20.422  1.00  0.00    +0.000 HD
ATOM    166  H   ASP A   1       5.619   8.851 -19.930  1.00  0.00    +0.000 HD
ATOM    167  H   LYS A   2       1.097   8.860 -19.679  1.00  0.00    +0.000 HD
ATOM    168  H   LEU A   3      -0.343   7.035 -23.611  1.00  0.00    +0.000 HD
ATOM    169  H   VAL A   5      -3.771   8.366 -21.328  1.00  0.00    +0.000 HD
ATOM    170  H   THR A   6      -5.443  11.426 -18.494  1.00  0.00    +0.000 HD
ATOM    171  H   THR A   6      -2.933   9.559 -15.964  1.00  0.00    +0.000 HD
ATOM    172  H   ALA A   7      -6.065  11.063 -14.179  1.00  0.00    +0.000 HD
ATOM    173  H   LEU A   8      -5.345  13.250 -15.954  1.00  0.00    +0.000 HD
ATOM    174  H   LEU A   9      -5.438  17.617 -14.770  1.00  0.00    +0.000 HD
ATOM    175  H   VAL A  10      -1.889  19.244 -17.455  1.00  0.00    +0.000 HD
ATOM    176  H   VAL A  11       0.584  18.635 -14.433  1.00  0.00    +0.000 HD
ATOM    177  H   PHE A  12       3.983  16.432 -16.523  1.00  0.00    +0.000 HD
ATOM    178  H   ALA A  13       5.965  16.356 -14.119  1.00  0.00    +0.000 HD
ATOM    179  H   GLU A  14       7.856  12.605 -15.989  1.00  0.00    +0.000 HD
ATOM    180  H   GLU A  14      10.854   8.986 -16.507  1.00  0.00    +0.000 HD
ATOM    181  H   SER A  15       9.743  14.223 -16.927  1.00  0.00    +0.000 HD
ATOM    182  H   SER A  15      11.888  16.515 -18.518  1.00  0.00    +0.000 HD
ATOM    183  H   SER A  16      14.229  14.255 -18.397  1.00  0.00    +0.000 HD
ATOM    184  H   SER A  16      16.336  12.482 -15.979  1.00  0.00    +0.000 HD
ATOM    185  H   ASP A  17      14.144  17.026 -17.550  1.00  0.00    +0.000 HD
ATOM    186  H   ASP A  17      17.058  16.483 -19.501  1.00  0.00    +0.000 HD
ATOM    187  H   LYS A  18      17.898  19.146 -16.610  1.00  0.00    +0.000 HD
ATOM    188  H   LYS A  18      14.707  18.977  -9.799  1.00  0.00    +0.000 HD
ATOM    189  H   LEU A  19      17.665  23.092 -14.522  1.00  0.00    +0.000 HD
ATOM    190  H   ARG A  20      21.605  23.875 -16.771  1.00  0.00    +0.000 HD
ATOM    191  H   ARG A  20      25.044  24.625 -20.267  1.00  0.00    +0.000 HD
ATOM    192  H   ARG A  20      25.450  23.766 -18.851  1.00  0.00    +0.000 HD
ATOM    193  H   ARG A  20      25.519  26.864 -20.431  1.00  0.00    +0.000 HD
ATOM    194  H   ARG A  20      26.280  27.676 -19.139  1.00  0.00    +0.000 HD
ATOM    195  H   ARG A  21      23.084  25.263 -12.795  1.00  0.00    +0.000 HD
ATOM    196  H   ARG A  21      18.501  31.701 -10.247  1.00  0.00    +0.000 HD
ATOM    197  H   ARG A  21      19.059  30.632 -11.453  1.00  0.00    +0.000 HD
ATOM    198  H   ARG A  21      19.665  31.930  -8.282  1.00  0.00    +0.000 HD
ATOM    199  H   ARG A  21      21.090  31.033  -8.022  1.00  0.00    +0.000 HD
ATOM    200  H   ARG A  21      25.379  25.872 -12.007  1.00  0.00    +0.000 HD
ENDROOT
TORSDOF 0
