REMARK  Name = /var/folders/yp/yjbh3p597675h2qddgqr02y00000gn/T/tmp5ew9lfi0.pdb
REMARK     285 UNITARY VALUES FOR THE UNIT CELL AUTOMATICALLY SET
REMARK     285 BY MDANALYSIS PDBWRITER BECAUSE UNIT CELL INFORMATION
REMARK     285 WAS MISSING.
REMARK     285 PROTEIN DATA BANK CONVENTIONS REQUIRE THAT
REMARK     285 CRYST1 RECORD IS INCLUDED, BUT THE VALUES ON
REMARK     285 THIS RECORD ARE MEANINGLESS.
REMARK     285 UNITARY VALUES FOR THE UNIT CELL AUTOMATICALLY SET
REMARK     285 BY MDANALYSIS PDBWRITER BECAUSE UNIT CELL INFORMATION
REMARK     285 WAS MISSING.
REMARK     285 PROTEIN DATA BANK CONVENTIONS REQUIRE THAT
REMARK     285 CRYST1 RECORD IS INCLUDED, BUT THE VALUES ON
REMARK     285 THIS RECORD ARE MEANINGLESS.
REMARK                            x       y       z     vdW  Elec       q    Type
REMARK                         _______ _______ _______ _____ _____    ______ ____
ROOT
ATOM      1  N   ASP A   1     -10.082  13.829   0.783  1.00  0.00    -0.122 NA
ATOM      2  CA  ASP A   1     -10.221  12.499   1.372  1.00  0.00    +0.181 C 
ATOM      3  C   ASP A   1     -11.356  11.728   0.719  1.00  0.00    +0.260 C 
ATOM      4  O   ASP A   1     -11.960  12.201  -0.243  1.00  0.00    -0.272 OA
ATOM      5  CB  ASP A   1     -10.467  12.593   2.870  1.00  0.00    +0.142 C 
ATOM      6  CG  ASP A   1     -11.925  12.846   3.218  1.00  0.00    +0.367 C 
ATOM      7  OD1 ASP A   1     -12.802  12.074   2.775  1.00  0.00    -0.246 OA
ATOM      8  OD2 ASP A   1     -12.197  13.828   3.942  1.00  0.00    -0.246 OA
ATOM      9  N   LYS A   2     -11.647  10.541   1.241  1.00  0.00    -0.197 N 
ATOM     10  CA  LYS A   2     -12.660   9.676   0.642  1.00  0.00    +0.173 C 
ATOM     11  C   LYS A   2     -13.807   9.428   1.611  1.00  0.00    +0.262 C 
ATOM     12  O   LYS A   2     -13.644   9.576   2.821  1.00  0.00    -0.271 OA
ATOM     13  CB  LYS A   2     -12.057   8.347   0.220  1.00  0.00    +0.031 C 
ATOM     14  CG  LYS A   2     -11.099   8.452  -0.955  1.00  0.00    +0.009 C 
ATOM     15  CD  LYS A   2     -10.468   7.112  -1.291  1.00  0.00    +0.049 C 
ATOM     16  CE  LYS A   2     -11.224   6.001  -0.719  1.00  0.00    +0.096 C 
ATOM     17  NZ  LYS A   2     -10.812   4.737  -0.694  1.00  0.00    -0.151 NA
ATOM     18  N   LEU A   3     -14.965   9.051   1.079  1.00  0.00    -0.196 N 
ATOM     19  CA  LEU A   3     -15.946   8.294   1.852  1.00  0.00    +0.173 C 
ATOM     20  C   LEU A   3     -15.865   6.812   1.525  1.00  0.00    +0.262 C 
ATOM     21  O   LEU A   3     -15.640   6.438   0.374  1.00  0.00    -0.271 OA
ATOM     22  CB  LEU A   3     -17.353   8.798   1.578  1.00  0.00    +0.031 C 
ATOM     23  CG  LEU A   3     -17.624   9.303   0.160  1.00  0.00    +0.002 C 
ATOM     24  CD1 LEU A   3     -18.701  10.382   0.180  1.00  0.00    +0.000 C 
ATOM     25  CD2 LEU A   3     -18.366   8.249  -0.654  1.00  0.00    +0.000 C 
ATOM     26  N   ALA A   4     -16.048   5.967   2.534  1.00  0.00    -0.196 N 
ATOM     27  CA  ALA A   4     -14.941   5.555   3.392  1.00  0.00    +0.173 C 
ATOM     28  C   ALA A   4     -13.985   4.639   2.648  1.00  0.00    +0.262 C 
ATOM     29  O   ALA A   4     -14.339   4.070   1.617  1.00  0.00    -0.271 OA
ATOM     30  CB  ALA A   4     -15.456   4.849   4.637  1.00  0.00    +0.033 C 
ATOM     31  N   VAL A   5     -12.770   4.496   3.169  1.00  0.00    -0.196 N 
ATOM     32  CA  VAL A   5     -12.326   3.220   3.724  1.00  0.00    +0.173 C 
ATOM     33  C   VAL A   5     -13.000   2.980   5.065  1.00  0.00    +0.262 C 
ATOM     34  O   VAL A   5     -13.440   1.868   5.354  1.00  0.00    -0.271 OA
ATOM     35  CB  VAL A   5     -10.817   3.170   3.898  1.00  0.00    +0.029 C 
ATOM     36  CG1 VAL A   5     -10.450   2.599   5.266  1.00  0.00    +0.002 C 
ATOM     37  CG2 VAL A   5     -10.185   2.279   2.830  1.00  0.00    +0.002 C 
ATOM     38  N   THR A   6     -13.082   4.023   5.886  1.00  0.00    -0.194 N 
ATOM     39  CA  THR A   6     -13.134   3.849   7.334  1.00  0.00    +0.203 C 
ATOM     40  C   THR A   6     -14.565   3.633   7.800  1.00  0.00    +0.264 C 
ATOM     41  O   THR A   6     -14.862   2.646   8.472  1.00  0.00    -0.271 OA
ATOM     42  CB  THR A   6     -12.540   5.048   8.056  1.00  0.00    +0.181 C 
ATOM     43  OG1 THR A   6     -13.069   6.248   7.487  1.00  0.00    -0.221 OA
ATOM     44  CG2 THR A   6     -11.016   5.065   7.933  1.00  0.00    +0.038 C 
ATOM     45  N   ALA A   7     -15.454   4.557   7.443  1.00  0.00    -0.196 N 
ATOM     46  CA  ALA A   7     -15.570   5.819   8.165  1.00  0.00    +0.173 C 
ATOM     47  C   ALA A   7     -16.096   5.599   9.573  1.00  0.00    +0.262 C 
ATOM     48  O   ALA A   7     -16.835   4.646   9.820  1.00  0.00    -0.271 OA
ATOM     49  CB  ALA A   7     -16.484   6.782   7.425  1.00  0.00    +0.033 C 
ATOM     50  N   LEU A   8     -15.717   6.477  10.496  1.00  0.00    -0.196 N 
ATOM     51  CA  LEU A   8     -16.585   6.828  11.616  1.00  0.00    +0.173 C 
ATOM     52  C   LEU A   8     -17.614   7.867  11.199  1.00  0.00    +0.262 C 
ATOM     53  O   LEU A   8     -17.288   8.819  10.492  1.00  0.00    -0.271 OA
ATOM     54  CB  LEU A   8     -15.771   7.361  12.783  1.00  0.00    +0.031 C 
ATOM     55  CG  LEU A   8     -16.192   6.880  14.173  1.00  0.00    +0.002 C 
ATOM     56  CD1 LEU A   8     -15.041   7.038  15.159  1.00  0.00    +0.000 C 
ATOM     57  CD2 LEU A   8     -16.314   5.360  14.200  1.00  0.00    +0.000 C 
ATOM     58  N   LEU A   9     -18.856   7.684  11.638  1.00  0.00    -0.196 N 
ATOM     59  CA  LEU A   9     -19.702   8.813  12.017  1.00  0.00    +0.173 C 
ATOM     60  C   LEU A   9     -19.873   8.878  13.526  1.00  0.00    +0.262 C 
ATOM     61  O   LEU A   9     -19.678   7.881  14.221  1.00  0.00    -0.271 OA
ATOM     62  CB  LEU A   9     -21.066   8.709  11.356  1.00  0.00    +0.031 C 
ATOM     63  CG  LEU A   9     -21.250   9.507  10.064  1.00  0.00    +0.002 C 
ATOM     64  CD1 LEU A   9     -22.682   9.374   9.560  1.00  0.00    +0.000 C 
ATOM     65  CD2 LEU A   9     -20.533   8.823   8.903  1.00  0.00    +0.000 C 
ATOM     66  N   VAL A  10     -20.237  10.051  14.034  1.00  0.00    -0.196 N 
ATOM     67  CA  VAL A  10     -19.308  10.865  14.812  1.00  0.00    +0.173 C 
ATOM     68  C   VAL A  10     -19.896  11.150  16.183  1.00  0.00    +0.262 C 
ATOM     69  O   VAL A  10     -20.936  11.798  16.298  1.00  0.00    -0.271 OA
ATOM     70  CB  VAL A  10     -18.984  12.177  14.116  1.00  0.00    +0.029 C 
ATOM     71  CG1 VAL A  10     -17.505  12.241  13.745  1.00  0.00    +0.002 C 
ATOM     72  CG2 VAL A  10     -19.799  12.314  12.832  1.00  0.00    +0.002 C 
ATOM     73  N   VAL A  11     -19.232  10.665  17.229  1.00  0.00    -0.196 N 
ATOM     74  CA  VAL A  11     -17.885  11.128  17.557  1.00  0.00    +0.173 C 
ATOM     75  C   VAL A  11     -16.860  10.129  17.043  1.00  0.00    +0.262 C 
ATOM     76  O   VAL A  11     -17.163   8.948  16.885  1.00  0.00    -0.271 OA
ATOM     77  CB  VAL A  11     -17.700  11.322  19.053  1.00  0.00    +0.029 C 
ATOM     78  CG1 VAL A  11     -16.867  12.570  19.336  1.00  0.00    +0.002 C 
ATOM     79  CG2 VAL A  11     -19.054  11.495  19.738  1.00  0.00    +0.002 C 
ATOM     80  N   PHE A  12     -15.645  10.604  16.782  1.00  0.00    -0.196 N 
ATOM     81  CA  PHE A  12     -14.598   9.748  16.231  1.00  0.00    +0.177 C 
ATOM     82  C   PHE A  12     -13.958   8.907  17.324  1.00  0.00    +0.262 C 
ATOM     83  O   PHE A  12     -13.152   9.408  18.105  1.00  0.00    -0.271 OA
ATOM     84  CB  PHE A  12     -13.529  10.578  15.539  1.00  0.00    +0.057 C 
ATOM     85  CG  PHE A  12     -13.966  11.157  14.225  1.00  0.00    -0.020 A 
ATOM     86  CD1 PHE A  12     -14.338  12.493  14.144  1.00  0.00    -0.004 A 
ATOM     87  CE1 PHE A  12     -14.743  13.029  12.926  1.00  0.00    -0.000 A 
ATOM     88  CD2 PHE A  12     -13.998  10.356  13.089  1.00  0.00    -0.004 A 
ATOM     89  CE2 PHE A  12     -14.403  10.891  11.873  1.00  0.00    -0.000 A 
ATOM     90  CZ  PHE A  12     -14.775  12.228  11.791  1.00  0.00    -0.000 A 
ATOM     91  N   ALA A  13     -14.317   7.628  17.377  1.00  0.00    -0.196 N 
ATOM     92  CA  ALA A  13     -15.719   7.227  17.287  1.00  0.00    +0.173 C 
ATOM     93  C   ALA A  13     -16.343   7.112  18.669  1.00  0.00    +0.262 C 
ATOM     94  O   ALA A  13     -15.717   6.599  19.595  1.00  0.00    -0.271 OA
ATOM     95  CB  ALA A  13     -15.857   5.902  16.557  1.00  0.00    +0.033 C 
ATOM     96  N   GLU A  14     -17.577   7.586  18.807  1.00  0.00    -0.196 N 
ATOM     97  CA  GLU A  14     -18.621   6.809  19.468  1.00  0.00    +0.173 C 
ATOM     98  C   GLU A  14     -19.163   5.724  18.550  1.00  0.00    +0.262 C 
ATOM     99  O   GLU A  14     -19.460   5.983  17.386  1.00  0.00    -0.271 OA
ATOM    100  CB  GLU A  14     -19.761   7.708  19.919  1.00  0.00    +0.043 C 
ATOM    101  CG  GLU A  14     -21.141   7.130  19.650  1.00  0.00    +0.116 C 
ATOM    102  CD  GLU A  14     -22.162   7.486  20.720  1.00  0.00    +0.365 C 
ATOM    103  OE1 GLU A  14     -21.892   8.392  21.537  1.00  0.00    -0.246 OA
ATOM    104  OE2 GLU A  14     -23.239   6.851  20.739  1.00  0.00    -0.246 OA
ATOM    105  N   SER A  15     -19.290   4.509  19.077  1.00  0.00    -0.194 N 
ATOM    106  CA  SER A  15     -20.122   4.274  20.253  1.00  0.00    +0.205 C 
ATOM    107  C   SER A  15     -19.273   4.072  21.497  1.00  0.00    +0.264 C 
ATOM    108  O   SER A  15     -18.119   3.661  21.407  1.00  0.00    -0.271 OA
ATOM    109  CB  SER A  15     -21.015   3.063  20.045  1.00  0.00    +0.213 C 
ATOM    110  OG  SER A  15     -20.240   1.884  19.909  1.00  0.00    -0.218 OA
ATOM    111  N   SER A  16     -19.847   4.360  22.663  1.00  0.00    -0.194 N 
ATOM    112  CA  SER A  16     -20.096   3.326  23.663  1.00  0.00    +0.205 C 
ATOM    113  C   SER A  16     -21.137   2.330  23.178  1.00  0.00    +0.264 C 
ATOM    114  O   SER A  16     -22.142   2.715  22.585  1.00  0.00    -0.271 OA
ATOM    115  CB  SER A  16     -20.558   3.945  24.972  1.00  0.00    +0.213 C 
ATOM    116  OG  SER A  16     -19.724   3.537  26.043  1.00  0.00    -0.218 OA
ATOM    117  N   ASP A  17     -20.897   1.047  23.432  1.00  0.00    -0.196 N 
ATOM    118  CA  ASP A  17     -21.638   0.322  24.458  1.00  0.00    +0.184 C 
ATOM    119  C   ASP A  17     -20.717  -0.127  25.581  1.00  0.00    +0.262 C 
ATOM    120  O   ASP A  17     -19.584  -0.537  25.336  1.00  0.00    -0.271 OA
ATOM    121  CB  ASP A  17     -22.344  -0.888  23.868  1.00  0.00    +0.145 C 
ATOM    122  CG  ASP A  17     -23.417  -1.457  24.783  1.00  0.00    +0.367 C 
ATOM    123  OD1 ASP A  17     -23.444  -1.104  25.982  1.00  0.00    -0.246 OA
ATOM    124  OD2 ASP A  17     -24.240  -2.264  24.299  1.00  0.00    -0.246 OA
ATOM    125  N   LYS A  18     -21.203  -0.050  26.817  1.00  0.00    -0.196 N 
ATOM    126  CA  LYS A  18     -21.746  -1.223  27.497  1.00  0.00    +0.173 C 
ATOM    127  C   LYS A  18     -23.199  -1.005  27.886  1.00  0.00    +0.262 C 
ATOM    128  O   LYS A  18     -23.627   0.130  28.090  1.00  0.00    -0.271 OA
ATOM    129  CB  LYS A  18     -20.933  -1.554  28.738  1.00  0.00    +0.031 C 
ATOM    130  CG  LYS A  18     -19.478  -1.885  28.448  1.00  0.00    +0.009 C 
ATOM    131  CD  LYS A  18     -18.700  -2.176  29.721  1.00  0.00    +0.049 C 
ATOM    132  CE  LYS A  18     -17.548  -3.036  29.465  1.00  0.00    +0.096 C 
ATOM    133  NZ  LYS A  18     -17.611  -4.252  28.932  1.00  0.00    -0.151 NA
ATOM    134  N   LEU A  19     -23.958  -2.092  27.990  1.00  0.00    -0.196 N 
ATOM    135  CA  LEU A  19     -24.780  -2.335  29.173  1.00  0.00    +0.173 C 
ATOM    136  C   LEU A  19     -24.399  -3.650  29.835  1.00  0.00    +0.262 C 
ATOM    137  O   LEU A  19     -24.158  -4.645  29.153  1.00  0.00    -0.271 OA
ATOM    138  CB  LEU A  19     -26.255  -2.359  28.807  1.00  0.00    +0.031 C 
ATOM    139  CG  LEU A  19     -27.237  -2.102  29.952  1.00  0.00    +0.002 C 
ATOM    140  CD1 LEU A  19     -28.520  -1.478  29.418  1.00  0.00    +0.000 C 
ATOM    141  CD2 LEU A  19     -26.757  -0.943  30.819  1.00  0.00    +0.000 C 
ATOM    142  N   ARG A  20     -24.346  -3.655  31.164  1.00  0.00    -0.196 N 
ATOM    143  CA  ARG A  20     -25.232  -4.504  31.956  1.00  0.00    +0.173 C 
ATOM    144  C   ARG A  20     -26.610  -3.877  32.090  1.00  0.00    +0.262 C 
ATOM    145  O   ARG A  20     -27.598  -4.437  31.619  1.00  0.00    -0.271 OA
ATOM    146  CB  ARG A  20     -24.650  -4.754  33.338  1.00  0.00    +0.033 C 
ATOM    147  CG  ARG A  20     -24.090  -6.155  33.525  1.00  0.00    +0.029 C 
ATOM    148  CD  ARG A  20     -22.839  -6.152  34.387  1.00  0.00    +0.129 C 
ATOM    149  NE  ARG A  20     -21.675  -6.643  33.654  1.00  0.00    -0.234 NA
ATOM    150  CZ  ARG A  20     -20.428  -6.226  33.843  1.00  0.00    +0.284 C 
ATOM    151  NH1 ARG A  20     -20.167  -5.224  34.678  1.00  0.00    -0.104 N 
ATOM    152  NH2 ARG A  20     -19.431  -6.817  33.190  1.00  0.00    -0.104 N 
ATOM    153  N   ARG A  21     -26.677  -2.716  32.734  1.00  0.00    -0.194 N 
ATOM    154  CA  ARG A  21     -27.461  -2.569  33.957  1.00  0.00    +0.198 C 
ATOM    155  C   ARG A  21     -28.758  -1.825  33.684  1.00  0.00    +0.384 C 
ATOM    156  O   ARG A  21     -29.834  -2.292  34.053  1.00  0.00    -0.244 OA
ATOM    157  CB  ARG A  21     -26.668  -1.833  35.025  1.00  0.00    +0.035 C 
ATOM    158  CG  ARG A  21     -27.341  -1.816  36.388  1.00  0.00    +0.029 C 
ATOM    159  CD  ARG A  21     -27.366  -3.197  37.022  1.00  0.00    +0.129 C 
ATOM    160  NE  ARG A  21     -28.328  -4.076  36.364  1.00  0.00    -0.234 NA
ATOM    161  CZ  ARG A  21     -28.628  -5.308  36.764  1.00  0.00    +0.284 C 
ATOM    162  NH1 ARG A  21     -28.348  -5.706  38.002  1.00  0.00    -0.104 N 
ATOM    163  NH2 ARG A  21     -29.211  -6.151  35.917  1.00  0.00    -0.104 N 
ATOM    164  OXT ARG A  21     -28.749  -0.748  33.092  1.00  0.00    -0.244 OA
ATOM    165  H   ASP A   1      -9.314  14.323   1.238  1.00  0.00    +0.000 HD
ATOM    166  H   ASP A   1     -10.948  14.351   0.913  1.00  0.00    +0.000 HD
ATOM    167  H   ASP A   1     -12.557  11.349   2.235  1.00  0.00    +0.000 HD
ATOM    168  H   LYS A   2     -11.171  10.238   2.047  1.00  0.00    +0.000 HD
ATOM    169  H   LYS A   2      -9.939   4.496  -1.079  1.00  0.00    +0.000 HD
ATOM    170  H   LEU A   3     -15.166   9.287   0.144  1.00  0.00    +0.000 HD
ATOM    171  H   ALA A   4     -16.950   5.611   2.707  1.00  0.00    +0.000 HD
ATOM    172  H   VAL A   5     -12.157   5.266   3.181  1.00  0.00    +0.000 HD
ATOM    173  H   THR A   6     -13.109   4.931   5.508  1.00  0.00    +0.000 HD
ATOM    174  H   THR A   6     -12.827   6.295   6.549  1.00  0.00    +0.000 HD
ATOM    175  H   ALA A   7     -16.046   4.384   6.675  1.00  0.00    +0.000 HD
ATOM    176  H   LEU A   8     -14.831   6.899  10.422  1.00  0.00    +0.000 HD
ATOM    177  H   LEU A   9     -19.213   6.769  11.708  1.00  0.00    +0.000 HD
ATOM    178  H   VAL A  10     -21.154  10.378  13.883  1.00  0.00    +0.000 HD
ATOM    179  H   VAL A  11     -19.657   9.981  17.795  1.00  0.00    +0.000 HD
ATOM    180  H   PHE A  12     -15.448  11.551  16.965  1.00  0.00    +0.000 HD
ATOM    181  H   ALA A  13     -13.623   6.936  17.478  1.00  0.00    +0.000 HD
ATOM    182  H   GLU A  14     -17.791   8.480  18.456  1.00  0.00    +0.000 HD
ATOM    183  H   GLU A  14     -23.398   6.180  20.105  1.00  0.00    +0.000 HD
ATOM    184  H   SER A  15     -18.813   3.753  18.664  1.00  0.00    +0.000 HD
ATOM    185  H   SER A  15     -19.656   1.969  19.139  1.00  0.00    +0.000 HD
ATOM    186  H   SER A  16     -20.108   5.289  22.855  1.00  0.00    +0.000 HD
ATOM    187  H   SER A  16     -18.814   3.827  25.874  1.00  0.00    +0.000 HD
ATOM    188  H   ASP A  17     -20.203   0.576  22.915  1.00  0.00    +0.000 HD
ATOM    189  H   ASP A  17     -24.186  -2.502  23.395  1.00  0.00    +0.000 HD
ATOM    190  H   LYS A  18     -21.196   0.817  27.284  1.00  0.00    +0.000 HD
ATOM    191  H   LYS A  18     -18.483  -4.633  28.679  1.00  0.00    +0.000 HD
ATOM    192  H   LEU A  19     -23.966  -2.746  27.255  1.00  0.00    +0.000 HD
ATOM    193  H   ARG A  20     -23.697  -3.075  31.623  1.00  0.00    +0.000 HD
ATOM    194  H   ARG A  20     -19.239  -4.923  34.810  1.00  0.00    +0.000 HD
ATOM    195  H   ARG A  20     -20.901  -4.785  35.164  1.00  0.00    +0.000 HD
ATOM    196  H   ARG A  20     -18.504  -6.512  33.326  1.00  0.00    +0.000 HD
ATOM    197  H   ARG A  20     -19.619  -7.559  32.571  1.00  0.00    +0.000 HD
ATOM    198  H   ARG A  21     -26.187  -1.940  32.379  1.00  0.00    +0.000 HD
ATOM    199  H   ARG A  21     -29.859  -3.112  34.507  1.00  0.00    +0.000 HD
ATOM    200  H   ARG A  21     -27.916  -5.085  38.633  1.00  0.00    +0.000 HD
ATOM    201  H   ARG A  21     -28.572  -6.621  38.289  1.00  0.00    +0.000 HD
ATOM    202  H   ARG A  21     -29.420  -5.861  35.000  1.00  0.00    +0.000 HD
ATOM    203  H   ARG A  21     -29.434  -7.065  36.207  1.00  0.00    +0.000 HD
ENDROOT
TORSDOF 0
