REMARK  Name = /var/folders/yp/yjbh3p597675h2qddgqr02y00000gn/T/tmpw9ts48k8.pdb
REMARK     285 UNITARY VALUES FOR THE UNIT CELL AUTOMATICALLY SET
REMARK     285 BY MDANALYSIS PDBWRITER BECAUSE UNIT CELL INFORMATION
REMARK     285 WAS MISSING.
REMARK     285 PROTEIN DATA BANK CONVENTIONS REQUIRE THAT
REMARK     285 CRYST1 RECORD IS INCLUDED, BUT THE VALUES ON
REMARK     285 THIS RECORD ARE MEANINGLESS.
REMARK     285 UNITARY VALUES FOR THE UNIT CELL AUTOMATICALLY SET
REMARK     285 BY MDANALYSIS PDBWRITER BECAUSE UNIT CELL INFORMATION
REMARK     285 WAS MISSING.
REMARK     285 PROTEIN DATA BANK CONVENTIONS REQUIRE THAT
REMARK     285 CRYST1 RECORD IS INCLUDED, BUT THE VALUES ON
REMARK     285 THIS RECORD ARE MEANINGLESS.
REMARK                            x       y       z     vdW  Elec       q    Type
REMARK                         _______ _______ _______ _____ _____    ______ ____
ROOT
ATOM      1  N   ASP A   1     -11.909  -3.915  17.515  1.00  0.00    -0.122 NA
ATOM      2  CA  ASP A   1     -13.024  -4.502  18.252  1.00  0.00    +0.180 C 
ATOM      3  C   ASP A   1     -13.693  -5.604  17.446  1.00  0.00    +0.259 C 
ATOM      4  O   ASP A   1     -13.763  -5.526  16.220  1.00  0.00    -0.272 OA
ATOM      5  CB  ASP A   1     -14.053  -3.444  18.616  1.00  0.00    +0.141 C 
ATOM      6  CG  ASP A   1     -14.889  -3.818  19.829  1.00  0.00    +0.354 C 
ATOM      7  OD1 ASP A   1     -15.777  -4.691  19.714  1.00  0.00    -0.294 OA
ATOM      8  OD2 ASP A   1     -14.656  -3.234  20.910  1.00  0.00    -0.247 OA
ATOM      9  N   LYS A   2     -14.184  -6.631  18.133  1.00  0.00    -0.202 N 
ATOM     10  CA  LYS A   2     -15.505  -7.179  17.840  1.00  0.00    +0.144 C 
ATOM     11  C   LYS A   2     -16.601  -6.205  18.241  1.00  0.00    +0.258 C 
ATOM     12  O   LYS A   2     -16.475  -5.503  19.243  1.00  0.00    -0.152 OA
ATOM     13  CB  LYS A   2     -15.713  -8.502  18.558  1.00  0.00    +0.026 C 
ATOM     14  CG  LYS A   2     -15.230  -9.711  17.773  1.00  0.00    +0.008 C 
ATOM     15  CD  LYS A   2     -13.718  -9.850  17.824  1.00  0.00    +0.049 C 
ATOM     16  CE  LYS A   2     -13.060  -8.905  16.924  1.00  0.00    +0.096 C 
ATOM     17  NZ  LYS A   2     -11.744  -8.724  16.845  1.00  0.00    -0.151 NA
ATOM     18  N   LEU A   3     -17.678  -6.163  17.462  1.00  0.00    -0.179 NA
ATOM     19  CA  LEU A   3     -18.972  -5.724  17.973  1.00  0.00    +0.153 C 
ATOM     20  C   LEU A   3     -19.655  -6.838  18.747  1.00  0.00    +0.258 C 
ATOM     21  O   LEU A   3     -19.907  -7.912  18.202  1.00  0.00    -0.272 OA
ATOM     22  CB  LEU A   3     -19.873  -5.266  16.838  1.00  0.00    +0.027 C 
ATOM     23  CG  LEU A   3     -20.853  -4.139  17.168  1.00  0.00    +0.002 C 
ATOM     24  CD1 LEU A   3     -20.516  -2.892  16.360  1.00  0.00    +0.000 C 
ATOM     25  CD2 LEU A   3     -20.589  -3.590  18.566  1.00  0.00    +0.000 C 
ATOM     26  N   ALA A   4     -19.955  -6.587  20.017  1.00  0.00    -0.197 N 
ATOM     27  CA  ALA A   4     -21.318  -6.732  20.521  1.00  0.00    +0.173 C 
ATOM     28  C   ALA A   4     -22.242  -5.697  19.899  1.00  0.00    +0.262 C 
ATOM     29  O   ALA A   4     -21.836  -4.562  19.656  1.00  0.00    -0.271 OA
ATOM     30  CB  ALA A   4     -21.352  -6.599  22.034  1.00  0.00    +0.033 C 
ATOM     31  N   VAL A   5     -23.486  -6.088  19.640  1.00  0.00    -0.196 N 
ATOM     32  CA  VAL A   5     -24.605  -5.152  19.700  1.00  0.00    +0.173 C 
ATOM     33  C   VAL A   5     -24.926  -4.825  21.149  1.00  0.00    +0.262 C 
ATOM     34  O   VAL A   5     -25.236  -5.718  21.937  1.00  0.00    -0.271 OA
ATOM     35  CB  VAL A   5     -25.845  -5.706  19.019  1.00  0.00    +0.029 C 
ATOM     36  CG1 VAL A   5     -26.866  -4.598  18.769  1.00  0.00    +0.002 C 
ATOM     37  CG2 VAL A   5     -25.482  -6.324  17.669  1.00  0.00    +0.002 C 
ATOM     38  N   THR A   6     -24.853  -3.545  21.502  1.00  0.00    -0.194 N 
ATOM     39  CA  THR A   6     -25.766  -2.975  22.489  1.00  0.00    +0.203 C 
ATOM     40  C   THR A   6     -26.906  -2.239  21.805  1.00  0.00    +0.264 C 
ATOM     41  O   THR A   6     -27.575  -1.411  22.422  1.00  0.00    -0.271 OA
ATOM     42  CB  THR A   6     -25.040  -2.027  23.430  1.00  0.00    +0.181 C 
ATOM     43  OG1 THR A   6     -25.905  -0.937  23.756  1.00  0.00    -0.221 OA
ATOM     44  CG2 THR A   6     -23.765  -1.479  22.786  1.00  0.00    +0.038 C 
ATOM     45  N   ALA A   7     -27.129  -2.539  20.528  1.00  0.00    -0.196 N 
ATOM     46  CA  ALA A   7     -28.389  -2.199  19.875  1.00  0.00    +0.173 C 
ATOM     47  C   ALA A   7     -29.542  -2.993  20.467  1.00  0.00    +0.262 C 
ATOM     48  O   ALA A   7     -29.385  -4.164  20.807  1.00  0.00    -0.271 OA
ATOM     49  CB  ALA A   7     -28.310  -2.456  18.380  1.00  0.00    +0.033 C 
ATOM     50  N   LEU A   8     -30.703  -2.354  20.591  1.00  0.00    -0.196 N 
ATOM     51  CA  LEU A   8     -31.823  -2.633  19.698  1.00  0.00    +0.173 C 
ATOM     52  C   LEU A   8     -31.632  -1.946  18.357  1.00  0.00    +0.262 C 
ATOM     53  O   LEU A   8     -30.642  -1.246  18.150  1.00  0.00    -0.271 OA
ATOM     54  CB  LEU A   8     -33.134  -2.177  20.319  1.00  0.00    +0.031 C 
ATOM     55  CG  LEU A   8     -33.925  -3.241  21.081  1.00  0.00    +0.002 C 
ATOM     56  CD1 LEU A   8     -33.726  -3.074  22.582  1.00  0.00    +0.000 C 
ATOM     57  CD2 LEU A   8     -33.280  -4.612  20.912  1.00  0.00    +0.000 C 
ATOM     58  N   LEU A   9     -32.579  -2.144  17.443  1.00  0.00    -0.196 N 
ATOM     59  CA  LEU A   9     -33.963  -2.398  17.829  1.00  0.00    +0.173 C 
ATOM     60  C   LEU A   9     -34.069  -3.657  18.675  1.00  0.00    +0.262 C 
ATOM     61  O   LEU A   9     -33.264  -4.576  18.531  1.00  0.00    -0.271 OA
ATOM     62  CB  LEU A   9     -34.848  -2.537  16.600  1.00  0.00    +0.031 C 
ATOM     63  CG  LEU A   9     -35.625  -1.287  16.184  1.00  0.00    +0.002 C 
ATOM     64  CD1 LEU A   9     -37.083  -1.638  15.910  1.00  0.00    +0.000 C 
ATOM     65  CD2 LEU A   9     -35.224  -0.850  14.779  1.00  0.00    +0.000 C 
ATOM     66  N   VAL A  10     -35.062  -3.700  19.558  1.00  0.00    -0.196 N 
ATOM     67  CA  VAL A  10     -36.051  -4.774  19.536  1.00  0.00    +0.173 C 
ATOM     68  C   VAL A  10     -37.449  -4.184  19.451  1.00  0.00    +0.262 C 
ATOM     69  O   VAL A  10     -37.857  -3.408  20.315  1.00  0.00    -0.271 OA
ATOM     70  CB  VAL A  10     -35.950  -5.662  20.765  1.00  0.00    +0.029 C 
ATOM     71  CG1 VAL A  10     -36.598  -7.020  20.504  1.00  0.00    +0.002 C 
ATOM     72  CG2 VAL A  10     -34.488  -5.900  21.132  1.00  0.00    +0.002 C 
ATOM     73  N   VAL A  11     -38.187  -4.550  18.406  1.00  0.00    -0.196 N 
ATOM     74  CA  VAL A  11     -39.298  -5.488  18.550  1.00  0.00    +0.173 C 
ATOM     75  C   VAL A  11     -38.763  -6.910  18.623  1.00  0.00    +0.262 C 
ATOM     76  O   VAL A  11     -37.728  -7.218  18.035  1.00  0.00    -0.271 OA
ATOM     77  CB  VAL A  11     -40.287  -5.376  17.402  1.00  0.00    +0.029 C 
ATOM     78  CG1 VAL A  11     -40.970  -4.010  17.409  1.00  0.00    +0.002 C 
ATOM     79  CG2 VAL A  11     -39.569  -5.537  16.064  1.00  0.00    +0.002 C 
ATOM     80  N   PHE A  12     -39.468  -7.775  19.346  1.00  0.00    -0.196 N 
ATOM     81  CA  PHE A  12     -38.903  -9.055  19.761  1.00  0.00    +0.177 C 
ATOM     82  C   PHE A  12     -39.490 -10.194  18.943  1.00  0.00    +0.262 C 
ATOM     83  O   PHE A  12     -38.777 -10.854  18.190  1.00  0.00    -0.271 OA
ATOM     84  CB  PHE A  12     -39.156  -9.308  21.238  1.00  0.00    +0.057 C 
ATOM     85  CG  PHE A  12     -40.492  -8.819  21.716  1.00  0.00    -0.020 A 
ATOM     86  CD1 PHE A  12     -40.599  -7.572  22.321  1.00  0.00    -0.004 A 
ATOM     87  CE1 PHE A  12     -41.836  -7.119  22.764  1.00  0.00    -0.000 A 
ATOM     88  CD2 PHE A  12     -41.622  -9.613  21.555  1.00  0.00    -0.004 A 
ATOM     89  CE2 PHE A  12     -42.858  -9.159  21.998  1.00  0.00    -0.000 A 
ATOM     90  CZ  PHE A  12     -42.966  -7.912  22.603  1.00  0.00    -0.000 A 
ATOM     91  N   ALA A  13     -40.792 -10.423  19.090  1.00  0.00    -0.196 N 
ATOM     92  CA  ALA A  13     -41.284 -11.685  19.634  1.00  0.00    +0.173 C 
ATOM     93  C   ALA A  13     -41.159 -12.806  18.614  1.00  0.00    +0.262 C 
ATOM     94  O   ALA A  13     -41.375 -12.591  17.422  1.00  0.00    -0.271 OA
ATOM     95  CB  ALA A  13     -42.735 -11.556  20.068  1.00  0.00    +0.033 C 
ATOM     96  N   GLU A  14     -40.811 -14.001  19.081  1.00  0.00    -0.196 N 
ATOM     97  CA  GLU A  14     -41.270 -15.230  18.440  1.00  0.00    +0.172 C 
ATOM     98  C   GLU A  14     -42.677 -15.592  18.889  1.00  0.00    +0.248 C 
ATOM     99  O   GLU A  14     -43.061 -15.314  20.023  1.00  0.00    -0.273 OA
ATOM    100  CB  GLU A  14     -40.328 -16.384  18.744  1.00  0.00    +0.049 C 
ATOM    101  CG  GLU A  14     -40.185 -17.378  17.604  1.00  0.00    +0.141 C 
ATOM    102  CD  GLU A  14     -39.173 -18.476  17.885  1.00  0.00    +0.320 C 
ATOM    103  OE1 GLU A  14     -39.314 -19.184  18.906  1.00  0.00    -0.452 OA
ATOM    104  OE2 GLU A  14     -38.230 -18.629  17.078  1.00  0.00    -0.250 OA
ATOM    105  N   SER A  15     -43.445 -16.214  17.997  1.00  0.00    -0.239 NA
ATOM    106  CA  SER A  15     -44.865 -16.439  18.245  1.00  0.00    +0.153 C 
ATOM    107  C   SER A  15     -45.089 -17.699  19.066  1.00  0.00    +0.211 C 
ATOM    108  O   SER A  15     -44.336 -18.665  18.948  1.00  0.00    -0.338 OA
ATOM    109  CB  SER A  15     -45.628 -16.544  16.935  1.00  0.00    +0.184 C 
ATOM    110  OG  SER A  15     -45.246 -17.708  16.224  1.00  0.00    -0.221 OA
ATOM    111  N   SER A  16     -46.127 -17.692  19.898  1.00  0.00    -0.180 NA
ATOM    112  CA  SER A  16     -46.984 -18.863  20.055  1.00  0.00    +0.186 C 
ATOM    113  C   SER A  16     -47.808 -19.114  18.803  1.00  0.00    +0.260 C 
ATOM    114  O   SER A  16     -48.136 -20.258  18.490  1.00  0.00    -0.272 OA
ATOM    115  CB  SER A  16     -47.911 -18.694  21.246  1.00  0.00    +0.209 C 
ATOM    116  OG  SER A  16     -47.432 -19.424  22.363  1.00  0.00    -0.218 OA
ATOM    117  N   ASP A  17     -48.144 -18.046  18.085  1.00  0.00    -0.196 N 
ATOM    118  CA  ASP A  17     -47.161 -17.027  17.733  1.00  0.00    +0.188 C 
ATOM    119  C   ASP A  17     -47.319 -15.791  18.604  1.00  0.00    +0.263 C 
ATOM    120  O   ASP A  17     -48.339 -15.624  19.271  1.00  0.00    -0.271 OA
ATOM    121  CB  ASP A  17     -47.285 -16.635  16.269  1.00  0.00    +0.164 C 
ATOM    122  CG  ASP A  17     -48.698 -16.232  15.879  1.00  0.00    +0.369 C 
ATOM    123  OD1 ASP A  17     -49.604 -16.278  16.738  1.00  0.00    -0.245 OA
ATOM    124  OD2 ASP A  17     -48.904 -15.866  14.702  1.00  0.00    -0.245 OA
ATOM    125  N   LYS A  18     -46.312 -14.924  18.598  1.00  0.00    -0.196 N 
ATOM    126  CA  LYS A  18     -45.826 -14.330  17.357  1.00  0.00    +0.173 C 
ATOM    127  C   LYS A  18     -44.317 -14.475  17.235  1.00  0.00    +0.262 C 
ATOM    128  O   LYS A  18     -43.571 -13.599  17.668  1.00  0.00    -0.271 OA
ATOM    129  CB  LYS A  18     -46.202 -12.859  17.277  1.00  0.00    +0.031 C 
ATOM    130  CG  LYS A  18     -46.104 -12.128  18.606  1.00  0.00    +0.009 C 
ATOM    131  CD  LYS A  18     -46.848 -10.803  18.578  1.00  0.00    +0.049 C 
ATOM    132  CE  LYS A  18     -47.535 -10.543  19.839  1.00  0.00    +0.096 C 
ATOM    133  NZ  LYS A  18     -48.623  -9.792  19.970  1.00  0.00    -0.151 NA
ATOM    134  N   LEU A  19     -43.870 -15.579  16.644  1.00  0.00    -0.195 N 
ATOM    135  CA  LEU A  19     -42.441 -15.824  16.475  1.00  0.00    +0.210 C 
ATOM    136  C   LEU A  19     -42.032 -15.660  15.020  1.00  0.00    +0.277 C 
ATOM    137  O   LEU A  19     -40.974 -16.137  14.610  1.00  0.00    -0.270 OA
ATOM    138  CB  LEU A  19     -42.075 -17.222  16.949  1.00  0.00    +0.054 C 
ATOM    139  CG  LEU A  19     -41.915 -17.398  18.460  1.00  0.00    +0.071 C 
ATOM    140  CD1 LEU A  19     -40.686 -18.247  18.766  1.00  0.00    +0.182 C 
ATOM    141  CD2 LEU A  19     -42.987 -18.336  19.007  1.00  0.00    +0.147 C 
ATOM    142  N   ARG A  20     -42.868 -14.985  14.238  1.00  0.00    -0.195 N 
ATOM    143  CA  ARG A  20     -42.572 -14.753  12.827  1.00  0.00    +0.173 C 
ATOM    144  C   ARG A  20     -41.352 -13.860  12.667  1.00  0.00    +0.262 C 
ATOM    145  O   ARG A  20     -40.315 -14.301  12.177  1.00  0.00    -0.271 OA
ATOM    146  CB  ARG A  20     -43.760 -14.123  12.119  1.00  0.00    +0.033 C 
ATOM    147  CG  ARG A  20     -43.600 -14.035  10.610  1.00  0.00    +0.029 C 
ATOM    148  CD  ARG A  20     -44.515 -12.984  10.005  1.00  0.00    +0.129 C 
ATOM    149  NE  ARG A  20     -44.519 -13.045   8.547  1.00  0.00    -0.234 NA
ATOM    150  CZ  ARG A  20     -44.323 -12.005   7.743  1.00  0.00    +0.284 C 
ATOM    151  NH1 ARG A  20     -44.116 -10.790   8.244  1.00  0.00    -0.104 N 
ATOM    152  NH2 ARG A  20     -44.332 -12.181   6.424  1.00  0.00    -0.104 N 
ATOM    153  N   ARG A  21     -41.476 -12.602  13.079  1.00  0.00    -0.194 N 
ATOM    154  CA  ARG A  21     -40.904 -11.493  12.322  1.00  0.00    +0.198 C 
ATOM    155  C   ARG A  21     -39.577 -11.056  12.921  1.00  0.00    +0.384 C 
ATOM    156  O   ARG A  21     -38.521 -11.286  12.333  1.00  0.00    -0.244 OA
ATOM    157  CB  ARG A  21     -41.857 -10.311  12.285  1.00  0.00    +0.035 C 
ATOM    158  CG  ARG A  21     -43.023 -10.430  13.253  1.00  0.00    +0.029 C 
ATOM    159  CD  ARG A  21     -42.777  -9.647  14.532  1.00  0.00    +0.129 C 
ATOM    160  NE  ARG A  21     -41.361  -9.338  14.712  1.00  0.00    -0.234 NA
ATOM    161  CZ  ARG A  21     -40.857  -8.658  15.738  1.00  0.00    +0.284 C 
ATOM    162  NH1 ARG A  21     -41.454  -7.553  16.177  1.00  0.00    -0.104 N 
ATOM    163  NH2 ARG A  21     -39.744  -9.086  16.327  1.00  0.00    -0.104 N 
ATOM    164  OXT ARG A  21     -39.540 -10.466  13.999  1.00  0.00    -0.244 OA
ATOM    165  H   ASP A   1     -11.479  -3.180  18.077  1.00  0.00    +0.000 HD
ATOM    166  H   ASP A   1     -12.252  -3.518  16.639  1.00  0.00    +0.000 HD
ATOM    167  H   LYS A   2     -13.645  -7.030  18.854  1.00  0.00    +0.000 HD
ATOM    168  H   LYS A   2     -11.140  -9.247  17.419  1.00  0.00    +0.000 HD
ATOM    169  H   LEU A   3     -17.815  -7.110  17.108  1.00  0.00    +0.000 HD
ATOM    170  H   ALA A   4     -19.242  -6.296  20.632  1.00  0.00    +0.000 HD
ATOM    171  H   VAL A   5     -23.656  -7.029  19.403  1.00  0.00    +0.000 HD
ATOM    172  H   THR A   6     -24.169  -2.970  21.090  1.00  0.00    +0.000 HD
ATOM    173  H   THR A   6     -26.140  -0.458  22.945  1.00  0.00    +0.000 HD
ATOM    174  H   ALA A   7     -26.428  -3.000  20.013  1.00  0.00    +0.000 HD
ATOM    175  H   LEU A   8     -30.808  -1.679  21.300  1.00  0.00    +0.000 HD
ATOM    176  H   LEU A   9     -32.341  -2.120  16.488  1.00  0.00    +0.000 HD
ATOM    177  H   VAL A  10     -35.131  -2.994  20.240  1.00  0.00    +0.000 HD
ATOM    178  H   VAL A  11     -37.981  -4.181  17.518  1.00  0.00    +0.000 HD
ATOM    179  H   PHE A  12     -40.389  -7.547  19.607  1.00  0.00    +0.000 HD
ATOM    180  H   ALA A  13     -41.436  -9.728  18.826  1.00  0.00    +0.000 HD
ATOM    181  H   GLU A  14     -40.232 -14.058  19.874  1.00  0.00    +0.000 HD
ATOM    182  H   SER A  15     -44.316 -17.911  16.411  1.00  0.00    +0.000 HD
ATOM    183  H   SER A  16     -45.753 -17.482  20.823  1.00  0.00    +0.000 HD
ATOM    184  H   SER A  16     -46.553 -19.095  22.612  1.00  0.00    +0.000 HD
ATOM    185  H   ASP A  17     -49.076 -17.941  17.785  1.00  0.00    +0.000 HD
ATOM    186  H   ASP A  17     -48.196 -15.845  14.087  1.00  0.00    +0.000 HD
ATOM    187  H   LYS A  18     -45.884 -14.677  19.450  1.00  0.00    +0.000 HD
ATOM    188  H   LYS A  18     -49.023  -9.362  19.179  1.00  0.00    +0.000 HD
ATOM    189  H   ARG A  20     -43.705 -14.633  14.618  1.00  0.00    +0.000 HD
ATOM    190  H   ARG A  20     -44.107 -10.654   9.219  1.00  0.00    +0.000 HD
ATOM    191  H   ARG A  20     -43.971 -10.027   7.639  1.00  0.00    +0.000 HD
ATOM    192  H   ARG A  20     -44.485 -13.079   6.049  1.00  0.00    +0.000 HD
ATOM    193  H   ARG A  20     -44.187 -11.415   5.825  1.00  0.00    +0.000 HD
ATOM    194  H   ARG A  21     -41.965 -12.415  13.913  1.00  0.00    +0.000 HD
ATOM    195  H   ARG A  21     -38.531 -11.735  11.510  1.00  0.00    +0.000 HD
ATOM    196  H   ARG A  21     -41.072  -7.057  16.937  1.00  0.00    +0.000 HD
ATOM    197  H   ARG A  21     -42.276  -7.232  15.743  1.00  0.00    +0.000 HD
ATOM    198  H   ARG A  21     -39.366  -8.587  17.087  1.00  0.00    +0.000 HD
ATOM    199  H   ARG A  21     -39.299  -9.903  16.005  1.00  0.00    +0.000 HD
ENDROOT
TORSDOF 0
