REMARK  Name = /var/folders/yp/yjbh3p597675h2qddgqr02y00000gn/T/tmpuuoqdvph.pdb
REMARK     285 UNITARY VALUES FOR THE UNIT CELL AUTOMATICALLY SET
REMARK     285 BY MDANALYSIS PDBWRITER BECAUSE UNIT CELL INFORMATION
REMARK     285 WAS MISSING.
REMARK     285 PROTEIN DATA BANK CONVENTIONS REQUIRE THAT
REMARK     285 CRYST1 RECORD IS INCLUDED, BUT THE VALUES ON
REMARK     285 THIS RECORD ARE MEANINGLESS.
REMARK     285 UNITARY VALUES FOR THE UNIT CELL AUTOMATICALLY SET
REMARK     285 BY MDANALYSIS PDBWRITER BECAUSE UNIT CELL INFORMATION
REMARK     285 WAS MISSING.
REMARK     285 PROTEIN DATA BANK CONVENTIONS REQUIRE THAT
REMARK     285 CRYST1 RECORD IS INCLUDED, BUT THE VALUES ON
REMARK     285 THIS RECORD ARE MEANINGLESS.
REMARK                            x       y       z     vdW  Elec       q    Type
REMARK                         _______ _______ _______ _____ _____    ______ ____
REMARK  Name = /var/folders/yp/yjbh3p597675h2qddgqr02y00000gn/T/tmpuuoqdvph.pdb
REMARK     285 UNITARY VALUES FOR THE UNIT CELL AUTOMATICALLY SET
REMARK     285 BY MDANALYSIS PDBWRITER BECAUSE UNIT CELL INFORMATION
REMARK     285 WAS MISSING.
REMARK     285 PROTEIN DATA BANK CONVENTIONS REQUIRE THAT
REMARK     285 CRYST1 RECORD IS INCLUDED, BUT THE VALUES ON
REMARK     285 THIS RECORD ARE MEANINGLESS.
REMARK     285 UNITARY VALUES FOR THE UNIT CELL AUTOMATICALLY SET
REMARK     285 BY MDANALYSIS PDBWRITER BECAUSE UNIT CELL INFORMATION
REMARK     285 WAS MISSING.
REMARK     285 PROTEIN DATA BANK CONVENTIONS REQUIRE THAT
REMARK     285 CRYST1 RECORD IS INCLUDED, BUT THE VALUES ON
REMARK     285 THIS RECORD ARE MEANINGLESS.
REMARK                            x       y       z     vdW  Elec       q    Type
REMARK                         _______ _______ _______ _____ _____    ______ ____
ROOT
ATOM      1  N   ASP A   1      -9.298  24.665 -17.264  1.00  0.00    -0.131 NA
ATOM      2  CA  ASP A   1      -8.422  23.607 -16.770  1.00  0.00    +0.048 C 
ATOM      3  C   ASP A   1      -8.893  22.241 -17.245  1.00  0.00    +0.133 C 
ATOM      4  O   ASP A   1      -9.989  22.113 -17.790  1.00  0.00    -0.242 OA
ATOM      5  CB  ASP A   1      -8.356  23.620 -15.252  1.00  0.00    +0.018 C 
ATOM      6  N   LYS A   2      -8.066  21.221 -17.040  1.00  0.00    +0.446 N 
ATOM      7  CA  LYS A   2      -6.846  21.377 -16.252  1.00  0.00    -0.061 C 
ATOM      8  C   LYS A   2      -5.644  21.619 -17.151  1.00  0.00    +0.277 C 
ATOM      9  O   LYS A   2      -5.574  21.083 -18.256  1.00  0.00    -0.186 OA
ATOM     10  CB  LYS A   2      -6.597  20.151 -15.390  1.00  0.00    +0.144 C 
ATOM     11  CG  LYS A   2      -7.713  19.858 -14.400  1.00  0.00    +0.039 C 
ATOM     12  CD  LYS A   2      -7.237  18.977 -13.257  1.00  0.00    +0.052 C 
ATOM     13  CE  LYS A   2      -6.107  19.576 -12.550  1.00  0.00    +0.096 C 
ATOM     14  NZ  LYS A   2      -5.592  19.114 -11.414  1.00  0.00    -0.151 NA
ATOM     15  N   LEU A   3      -4.698  22.424 -16.677  1.00  0.00    -0.159 NA
ATOM     16  CA  LEU A   3      -3.608  22.898 -17.525  1.00  0.00    +0.174 C 
ATOM     17  C   LEU A   3      -2.271  22.368 -17.033  1.00  0.00    +0.213 C 
ATOM     18  O   LEU A   3      -1.984  22.415 -15.838  1.00  0.00    -0.335 OA
ATOM     19  CB  LEU A   3      -3.571  24.417 -17.559  1.00  0.00    +0.031 C 
ATOM     20  CG  LEU A   3      -3.533  25.059 -18.947  1.00  0.00    +0.032 C 
ATOM     21  CD1 LEU A   3      -2.104  25.093 -19.473  1.00  0.00    +0.144 C 
ATOM     22  CD2 LEU A   3      -3.780  26.561 -18.850  1.00  0.00    +0.003 C 
ATOM     23  N   ALA A   4      -1.454  21.864 -17.952  1.00  0.00    -0.188 NA
ATOM     24  CA  ALA A   4      -0.575  22.722 -18.742  1.00  0.00    +0.119 C 
ATOM     25  C   ALA A   4      -1.322  23.338 -19.913  1.00  0.00    +0.205 C 
ATOM     26  O   ALA A   4      -0.844  24.292 -20.527  1.00  0.00    -0.338 OA
ATOM     27  CB  ALA A   4       0.623  21.940 -19.257  1.00  0.00    +0.023 C 
ATOM     28  N   VAL A   5      -2.493  22.794 -20.227  1.00  0.00    -0.191 NA
ATOM     29  CA  VAL A   5      -3.705  23.116 -19.479  1.00  0.00    +0.091 C 
ATOM     30  C   VAL A   5      -3.736  22.325 -18.183  1.00  0.00    +0.228 C 
ATOM     31  O   VAL A   5      -3.603  21.102 -18.194  1.00  0.00    -0.287 OA
ATOM     32  CB  VAL A   5      -4.962  22.822 -20.283  1.00  0.00    +0.018 C 
ATOM     33  CG1 VAL A   5      -6.165  23.551 -19.689  1.00  0.00    +0.001 C 
ATOM     34  CG2 VAL A   5      -4.794  23.290 -21.727  1.00  0.00    +0.001 C 
ATOM     35  N   THR A   6      -3.913  23.021 -17.063  1.00  0.00    -0.135 NA
ATOM     36  CA  THR A   6      -4.226  22.361 -15.799  1.00  0.00    +0.155 C 
ATOM     37  C   THR A   6      -5.729  22.272 -15.596  1.00  0.00    +0.215 C 
ATOM     38  O   THR A   6      -6.196  21.641 -14.649  1.00  0.00    -0.338 OA
ATOM     39  CB  THR A   6      -3.597  23.091 -14.624  1.00  0.00    +0.201 C 
ATOM     40  OG1 THR A   6      -4.386  24.240 -14.308  1.00  0.00    -0.219 OA
ATOM     41  CG2 THR A   6      -2.171  23.541 -14.952  1.00  0.00    +0.178 C 
ATOM     42  N   ALA A   7      -6.489  22.906 -16.485  1.00  0.00    -0.211 NA
ATOM     43  CA  ALA A   7      -7.917  23.109 -16.259  1.00  0.00    +0.065 C 
ATOM     44  C   ALA A   7      -8.655  21.782 -16.201  1.00  0.00    +0.143 C 
ATOM     45  O   ALA A   7      -9.741  21.697 -15.630  1.00  0.00    -0.242 OA
ATOM     46  CB  ALA A   7      -8.519  23.976 -17.351  1.00  0.00    +0.111 C 
ATOM     47  N   LEU A   8      -8.066  20.745 -16.792  1.00  0.00    -0.269 NA
ATOM     48  CA  LEU A   8      -8.836  19.591 -17.244  1.00  0.00    +0.133 C 
ATOM     49  C   LEU A   8      -9.106  18.636 -16.093  1.00  0.00    +0.256 C 
ATOM     50  O   LEU A   8      -8.175  18.167 -15.439  1.00  0.00    -0.272 OA
ATOM     51  CB  LEU A   8      -8.101  18.854 -18.352  1.00  0.00    +0.025 C 
ATOM     52  CG  LEU A   8      -8.152  19.498 -19.738  1.00  0.00    +0.002 C 
ATOM     53  CD1 LEU A   8      -7.729  18.495 -20.804  1.00  0.00    +0.000 C 
ATOM     54  CD2 LEU A   8      -7.017  20.504 -19.903  1.00  0.00    +0.000 C 
ATOM     55  N   LEU A   9     -10.381  18.347 -15.844  1.00  0.00    -0.197 N 
ATOM     56  CA  LEU A   9     -10.811  16.980 -15.568  1.00  0.00    +0.173 C 
ATOM     57  C   LEU A   9     -10.802  16.142 -16.836  1.00  0.00    +0.262 C 
ATOM     58  O   LEU A   9     -11.388  16.530 -17.846  1.00  0.00    -0.271 OA
ATOM     59  CB  LEU A   9     -12.204  16.965 -14.959  1.00  0.00    +0.031 C 
ATOM     60  CG  LEU A   9     -12.275  17.111 -13.438  1.00  0.00    +0.002 C 
ATOM     61  CD1 LEU A   9     -13.606  17.732 -13.029  1.00  0.00    +0.000 C 
ATOM     62  CD2 LEU A   9     -11.345  18.223 -12.961  1.00  0.00    +0.000 C 
ATOM     63  N   VAL A  10     -10.139  14.991 -16.787  1.00  0.00    -0.196 N 
ATOM     64  CA  VAL A  10     -10.741  13.746 -17.255  1.00  0.00    +0.173 C 
ATOM     65  C   VAL A  10     -11.830  13.307 -16.291  1.00  0.00    +0.262 C 
ATOM     66  O   VAL A  10     -11.550  12.965 -15.143  1.00  0.00    -0.271 OA
ATOM     67  CB  VAL A  10      -9.711  12.637 -17.398  1.00  0.00    +0.029 C 
ATOM     68  CG1 VAL A  10     -10.215  11.553 -18.348  1.00  0.00    +0.002 C 
ATOM     69  CG2 VAL A  10      -8.407  13.191 -17.964  1.00  0.00    +0.002 C 
ATOM     70  N   VAL A  11     -13.076  13.315 -16.755  1.00  0.00    -0.196 N 
ATOM     71  CA  VAL A  11     -14.031  12.272 -16.389  1.00  0.00    +0.173 C 
ATOM     72  C   VAL A  11     -13.677  10.977 -17.103  1.00  0.00    +0.262 C 
ATOM     73  O   VAL A  11     -13.362  10.986 -18.292  1.00  0.00    -0.271 OA
ATOM     74  CB  VAL A  11     -15.459  12.666 -16.729  1.00  0.00    +0.029 C 
ATOM     75  CG1 VAL A  11     -15.684  14.155 -16.476  1.00  0.00    +0.002 C 
ATOM     76  CG2 VAL A  11     -15.750  12.390 -18.203  1.00  0.00    +0.002 C 
ATOM     77  N   PHE A  12     -13.730   9.863 -16.378  1.00  0.00    -0.196 N 
ATOM     78  CA  PHE A  12     -14.460   8.688 -16.845  1.00  0.00    +0.177 C 
ATOM     79  C   PHE A  12     -15.957   8.870 -16.651  1.00  0.00    +0.262 C 
ATOM     80  O   PHE A  12     -16.427   9.004 -15.522  1.00  0.00    -0.271 OA
ATOM     81  CB  PHE A  12     -14.001   7.439 -16.111  1.00  0.00    +0.057 C 
ATOM     82  CG  PHE A  12     -14.753   6.198 -16.495  1.00  0.00    -0.020 A 
ATOM     83  CD1 PHE A  12     -14.572   5.637 -17.753  1.00  0.00    -0.004 A 
ATOM     84  CE1 PHE A  12     -15.269   4.489 -18.110  1.00  0.00    -0.000 A 
ATOM     85  CD2 PHE A  12     -15.630   5.608 -15.591  1.00  0.00    -0.004 A 
ATOM     86  CE2 PHE A  12     -16.327   4.460 -15.946  1.00  0.00    -0.000 A 
ATOM     87  CZ  PHE A  12     -16.146   3.900 -17.206  1.00  0.00    -0.000 A 
ATOM     88  N   ALA A  13     -16.704   8.876 -17.750  1.00  0.00    -0.196 N 
ATOM     89  CA  ALA A  13     -17.715   7.850 -17.988  1.00  0.00    +0.173 C 
ATOM     90  C   ALA A  13     -17.364   7.008 -19.204  1.00  0.00    +0.262 C 
ATOM     91  O   ALA A  13     -16.456   7.351 -19.959  1.00  0.00    -0.271 OA
ATOM     92  CB  ALA A  13     -19.086   8.476 -18.183  1.00  0.00    +0.033 C 
ATOM     93  N   GLU A  14     -18.085   5.906 -19.396  1.00  0.00    -0.196 N 
ATOM     94  CA  GLU A  14     -17.562   4.781 -20.162  1.00  0.00    +0.173 C 
ATOM     95  C   GLU A  14     -17.602   5.066 -21.655  1.00  0.00    +0.262 C 
ATOM     96  O   GLU A  14     -18.395   5.887 -22.113  1.00  0.00    -0.271 OA
ATOM     97  CB  GLU A  14     -18.349   3.512 -19.868  1.00  0.00    +0.043 C 
ATOM     98  CG  GLU A  14     -17.601   2.514 -18.999  1.00  0.00    +0.116 C 
ATOM     99  CD  GLU A  14     -18.307   1.174 -18.878  1.00  0.00    +0.365 C 
ATOM    100  OE1 GLU A  14     -17.844   0.313 -18.098  1.00  0.00    -0.246 OA
ATOM    101  OE2 GLU A  14     -19.330   0.982 -19.570  1.00  0.00    -0.246 OA
ATOM    102  N   SER A  15     -16.745   4.387 -22.414  1.00  0.00    -0.194 N 
ATOM    103  CA  SER A  15     -16.903   4.321 -23.864  1.00  0.00    +0.205 C 
ATOM    104  C   SER A  15     -18.110   3.481 -24.250  1.00  0.00    +0.264 C 
ATOM    105  O   SER A  15     -18.501   2.575 -23.516  1.00  0.00    -0.271 OA
ATOM    106  CB  SER A  15     -15.655   3.744 -24.513  1.00  0.00    +0.213 C 
ATOM    107  OG  SER A  15     -15.508   2.373 -24.186  1.00  0.00    -0.218 OA
ATOM    108  N   SER A  16     -18.701   3.782 -25.402  1.00  0.00    -0.194 N 
ATOM    109  CA  SER A  16     -18.958   2.762 -26.414  1.00  0.00    +0.205 C 
ATOM    110  C   SER A  16     -17.664   2.267 -27.038  1.00  0.00    +0.264 C 
ATOM    111  O   SER A  16     -16.736   1.879 -26.329  1.00  0.00    -0.271 OA
ATOM    112  CB  SER A  16     -19.872   3.301 -27.502  1.00  0.00    +0.213 C 
ATOM    113  OG  SER A  16     -19.251   4.369 -28.196  1.00  0.00    -0.218 OA
ATOM    114  N   ASP A  17     -17.600   2.278 -28.367  1.00  0.00    -0.196 N 
ATOM    115  CA  ASP A  17     -18.379   1.345 -29.173  1.00  0.00    +0.184 C 
ATOM    116  C   ASP A  17     -17.480   0.317 -29.841  1.00  0.00    +0.262 C 
ATOM    117  O   ASP A  17     -16.946   0.563 -30.923  1.00  0.00    -0.271 OA
ATOM    118  CB  ASP A  17     -19.182   2.081 -30.233  1.00  0.00    +0.145 C 
ATOM    119  CG  ASP A  17     -20.132   1.174 -30.999  1.00  0.00    +0.367 C 
ATOM    120  OD1 ASP A  17     -19.939  -0.061 -30.984  1.00  0.00    -0.246 OA
ATOM    121  OD2 ASP A  17     -21.079   1.701 -31.621  1.00  0.00    -0.246 OA
ATOM    122  N   LYS A  18     -17.311  -0.835 -29.200  1.00  0.00    -0.202 N 
ATOM    123  CA  LYS A  18     -17.012  -2.069 -29.920  1.00  0.00    +0.144 C 
ATOM    124  C   LYS A  18     -18.040  -3.146 -29.608  1.00  0.00    +0.258 C 
ATOM    125  O   LYS A  18     -18.566  -3.202 -28.499  1.00  0.00    -0.152 OA
ATOM    126  CB  LYS A  18     -15.623  -2.578 -29.569  1.00  0.00    +0.030 C 
ATOM    127  CG  LYS A  18     -14.545  -1.508 -29.632  1.00  0.00    +0.050 C 
ATOM    128  CD  LYS A  18     -13.203  -2.084 -30.056  1.00  0.00    +0.140 C 
ATOM    129  CE  LYS A  18     -12.655  -2.981 -29.043  1.00  0.00    +0.117 C 
ATOM    130  NZ  LYS A  18     -11.505  -3.639 -29.153  1.00  0.00    -0.150 NA
ATOM    131  N   LEU A  19     -18.324  -4.001 -30.587  1.00  0.00    -0.179 NA
ATOM    132  CA  LEU A  19     -18.716  -5.378 -30.303  1.00  0.00    +0.153 C 
ATOM    133  C   LEU A  19     -17.540  -6.177 -29.767  1.00  0.00    +0.258 C 
ATOM    134  O   LEU A  19     -17.723  -7.119 -28.998  1.00  0.00    -0.272 OA
ATOM    135  CB  LEU A  19     -19.259  -6.052 -31.554  1.00  0.00    +0.027 C 
ATOM    136  CG  LEU A  19     -20.028  -7.355 -31.335  1.00  0.00    +0.002 C 
ATOM    137  CD1 LEU A  19     -19.166  -8.357 -30.576  1.00  0.00    +0.000 C 
ATOM    138  CD2 LEU A  19     -20.171  -8.119 -32.648  1.00  0.00    +0.000 C 
ATOM    139  N   ARG A  20     -16.330  -5.803 -30.173  1.00  0.00    -0.197 N 
ATOM    140  CA  ARG A  20     -15.134  -6.129 -29.401  1.00  0.00    +0.173 C 
ATOM    141  C   ARG A  20     -15.155  -5.440 -28.046  1.00  0.00    +0.262 C 
ATOM    142  O   ARG A  20     -14.648  -5.978 -27.064  1.00  0.00    -0.271 OA
ATOM    143  CB  ARG A  20     -13.876  -5.731 -30.156  1.00  0.00    +0.033 C 
ATOM    144  CG  ARG A  20     -12.601  -6.323 -29.578  1.00  0.00    +0.029 C 
ATOM    145  CD  ARG A  20     -12.354  -7.734 -30.085  1.00  0.00    +0.129 C 
ATOM    146  NE  ARG A  20     -11.218  -8.359 -29.415  1.00  0.00    -0.234 NA
ATOM    147  CZ  ARG A  20     -10.412  -9.260 -29.967  1.00  0.00    +0.284 C 
ATOM    148  NH1 ARG A  20     -10.541  -9.591 -31.248  1.00  0.00    -0.104 N 
ATOM    149  NH2 ARG A  20      -9.466  -9.836 -29.229  1.00  0.00    -0.104 N 
ATOM    150  N   ARG A  21     -15.741  -4.247 -27.994  1.00  0.00    -0.194 N 
ATOM    151  CA  ARG A  21     -16.066  -3.615 -26.720  1.00  0.00    +0.197 C 
ATOM    152  C   ARG A  21     -17.462  -4.004 -26.261  1.00  0.00    +0.371 C 
ATOM    153  O   ARG A  21     -17.723  -4.093 -25.063  1.00  0.00    -0.245 OA
ATOM    154  CB  ARG A  21     -15.968  -2.102 -26.823  1.00  0.00    +0.035 C 
ATOM    155  CG  ARG A  21     -14.550  -1.589 -27.010  1.00  0.00    +0.027 C 
ATOM    156  CD  ARG A  21     -14.269  -1.220 -28.457  1.00  0.00    +0.108 C 
ATOM    157  NE  ARG A  21     -12.903  -0.735 -28.635  1.00  0.00    -0.242 NA
ATOM    158  CZ  ARG A  21     -12.382  -0.341 -29.793  1.00  0.00    +0.237 C 
ATOM    159  NH1 ARG A  21     -13.096  -0.407 -30.914  1.00  0.00    -0.201 N 
ATOM    160  NH2 ARG A  21     -11.136   0.124 -29.830  1.00  0.00    -0.089 N 
ATOM    161  OXT ARG A  21     -18.348  -4.235 -27.081  1.00  0.00    -0.292 OA
ATOM    162  H   ASP A   1      -9.397  25.178 -18.140  1.00  0.00    +0.000 HD
ATOM    163  H   ASP A   1      -9.092  25.319 -16.508  1.00  0.00    +0.000 HD
ATOM    164  H   ASP A   1     -10.428  22.976 -17.840  1.00  0.00    +0.000 HD
ATOM    165  H   LYS A   2      -5.671  21.755 -18.948  1.00  0.00    +0.000 HD
ATOM    166  H   LYS A   2      -5.975  18.313 -10.991  1.00  0.00    +0.000 HD
ATOM    167  H   ALA A   4      -0.849  21.202 -17.467  1.00  0.00    +0.000 HD
ATOM    168  H   VAL A   5      -2.370  21.784 -20.155  1.00  0.00    +0.000 HD
ATOM    169  H   THR A   6      -4.331  23.933 -17.249  1.00  0.00    +0.000 HD
ATOM    170  H   THR A   6      -4.410  24.836 -15.072  1.00  0.00    +0.000 HD
ATOM    171  H   ALA A   7     -10.442  21.566 -16.286  1.00  0.00    +0.000 HD
ATOM    172  H   LEU A   8      -8.379  20.929 -15.839  1.00  0.00    +0.000 HD
ATOM    173  H   LEU A   9     -11.048  19.071 -15.846  1.00  0.00    +0.000 HD
ATOM    174  H   VAL A  10      -9.222  14.978 -16.427  1.00  0.00    +0.000 HD
ATOM    175  H   VAL A  11     -13.360  14.038 -17.357  1.00  0.00    +0.000 HD
ATOM    176  H   PHE A  12     -13.268   9.830 -15.509  1.00  0.00    +0.000 HD
ATOM    177  H   ALA A  13     -16.573   9.587 -18.419  1.00  0.00    +0.000 HD
ATOM    178  H   GLU A  14     -18.990   5.849 -19.012  1.00  0.00    +0.000 HD
ATOM    179  H   GLU A  14     -17.074   0.499 -17.598  1.00  0.00    +0.000 HD
ATOM    180  H   SER A  15     -15.989   3.920 -21.989  1.00  0.00    +0.000 HD
ATOM    181  H   SER A  15     -15.423   2.278 -23.224  1.00  0.00    +0.000 HD
ATOM    182  H   SER A  16     -18.971   4.713 -25.576  1.00  0.00    +0.000 HD
ATOM    183  H   SER A  16     -18.434   4.053 -28.612  1.00  0.00    +0.000 HD
ATOM    184  H   ASP A  17     -17.014   2.930 -28.816  1.00  0.00    +0.000 HD
ATOM    185  H   ASP A  17     -19.217  -0.417 -30.505  1.00  0.00    +0.000 HD
ATOM    186  H   LYS A  18     -17.389  -0.856 -28.219  1.00  0.00    +0.000 HD
ATOM    187  H   LYS A  18     -10.955  -3.537 -29.963  1.00  0.00    +0.000 HD
ATOM    188  H   LEU A  19     -17.491  -4.054 -31.174  1.00  0.00    +0.000 HD
ATOM    189  H   ARG A  20     -16.239  -5.295 -31.011  1.00  0.00    +0.000 HD
ATOM    190  H   ARG A  20     -11.240  -9.168 -31.798  1.00  0.00    +0.000 HD
ATOM    191  H   ARG A  20      -9.939 -10.260 -31.647  1.00  0.00    +0.000 HD
ATOM    192  H   ARG A  20      -9.367  -9.594 -28.280  1.00  0.00    +0.000 HD
ATOM    193  H   ARG A  20      -8.866 -10.504 -29.632  1.00  0.00    +0.000 HD
ATOM    194  H   ARG A  21     -15.959  -3.780 -28.833  1.00  0.00    +0.000 HD
ATOM    195  H   ARG A  21     -13.387   0.104 -31.704  1.00  0.00    +0.000 HD
ATOM    196  H   ARG A  21     -10.745   0.417 -30.684  1.00  0.00    +0.000 HD
ATOM    197  H   ARG A  21     -10.605   0.174 -29.002  1.00  0.00    +0.000 HD
ATOM      1  CG  ASP A   1      -9.555  24.303 -14.611  1.00  0.00    +0.466 C 
ATOM      2  OD1 ASP A   1     -10.696  24.091 -15.071  1.00  0.00    -0.233 OA
ATOM      3  OD2 ASP A   1      -9.352  25.059 -13.636  1.00  0.00    -0.233 OA
ATOM      4  H   ASP A   1      -8.481  25.192 -13.319  1.00  0.00    +0.000 HD
ENDROOT
TORSDOF 0
