REMARK  Name = /var/folders/yp/yjbh3p597675h2qddgqr02y00000gn/T/tmpix3gxz71.pdb
REMARK     285 UNITARY VALUES FOR THE UNIT CELL AUTOMATICALLY SET
REMARK     285 BY MDANALYSIS PDBWRITER BECAUSE UNIT CELL INFORMATION
REMARK     285 WAS MISSING.
REMARK     285 PROTEIN DATA BANK CONVENTIONS REQUIRE THAT
REMARK     285 CRYST1 RECORD IS INCLUDED, BUT THE VALUES ON
REMARK     285 THIS RECORD ARE MEANINGLESS.
REMARK     285 UNITARY VALUES FOR THE UNIT CELL AUTOMATICALLY SET
REMARK     285 BY MDANALYSIS PDBWRITER BECAUSE UNIT CELL INFORMATION
REMARK     285 WAS MISSING.
REMARK     285 PROTEIN DATA BANK CONVENTIONS REQUIRE THAT
REMARK     285 CRYST1 RECORD IS INCLUDED, BUT THE VALUES ON
REMARK     285 THIS RECORD ARE MEANINGLESS.
REMARK                            x       y       z     vdW  Elec       q    Type
REMARK                         _______ _______ _______ _____ _____    ______ ____
ROOT
ATOM      1  N   ASP A   1     -20.803   2.449  11.443  1.00  0.00    -0.122 NA
ATOM      2  CA  ASP A   1     -20.418   1.859  12.723  1.00  0.00    +0.181 C 
ATOM      3  C   ASP A   1     -20.724   2.803  13.873  1.00  0.00    +0.260 C 
ATOM      4  O   ASP A   1     -20.624   4.020  13.725  1.00  0.00    -0.272 OA
ATOM      5  CB  ASP A   1     -18.940   1.506  12.735  1.00  0.00    +0.142 C 
ATOM      6  CG  ASP A   1     -18.560   0.574  13.874  1.00  0.00    +0.367 C 
ATOM      7  OD1 ASP A   1     -18.105   1.058  14.933  1.00  0.00    -0.246 OA
ATOM      8  OD2 ASP A   1     -18.718  -0.655  13.710  1.00  0.00    -0.246 OA
ATOM      9  N   LYS A   2     -21.098   2.244  15.020  1.00  0.00    -0.197 N 
ATOM     10  CA  LYS A   2     -21.827   3.001  16.033  1.00  0.00    +0.173 C 
ATOM     11  C   LYS A   2     -20.905   3.962  16.767  1.00  0.00    +0.262 C 
ATOM     12  O   LYS A   2     -19.772   3.612  17.094  1.00  0.00    -0.271 OA
ATOM     13  CB  LYS A   2     -22.489   2.068  17.034  1.00  0.00    +0.031 C 
ATOM     14  CG  LYS A   2     -23.741   1.387  16.505  1.00  0.00    +0.009 C 
ATOM     15  CD  LYS A   2     -24.428   0.558  17.576  1.00  0.00    +0.049 C 
ATOM     16  CE  LYS A   2     -24.591   1.309  18.819  1.00  0.00    +0.096 C 
ATOM     17  NZ  LYS A   2     -25.576   1.124  19.692  1.00  0.00    -0.151 NA
ATOM     18  N   LEU A   3     -21.390   5.172  17.027  1.00  0.00    -0.196 N 
ATOM     19  CA  LEU A   3     -20.750   6.376  16.503  1.00  0.00    +0.173 C 
ATOM     20  C   LEU A   3     -19.369   6.564  17.110  1.00  0.00    +0.262 C 
ATOM     21  O   LEU A   3     -19.189   6.396  18.315  1.00  0.00    -0.271 OA
ATOM     22  CB  LEU A   3     -21.599   7.604  16.787  1.00  0.00    +0.034 C 
ATOM     23  CG  LEU A   3     -22.212   7.689  18.187  1.00  0.00    +0.032 C 
ATOM     24  CD1 LEU A   3     -23.449   8.580  18.169  1.00  0.00    +0.003 C 
ATOM     25  CD2 LEU A   3     -21.334   8.531  19.105  1.00  0.00    +0.144 C 
ATOM     26  N   ALA A   4     -18.394   6.911  16.275  1.00  0.00    -0.196 N 
ATOM     27  CA  ALA A   4     -17.524   8.049  16.553  1.00  0.00    +0.173 C 
ATOM     28  C   ALA A   4     -18.318   9.344  16.604  1.00  0.00    +0.263 C 
ATOM     29  O   ALA A   4     -19.311   9.497  15.895  1.00  0.00    -0.271 OA
ATOM     30  CB  ALA A   4     -16.431   8.165  15.502  1.00  0.00    +0.033 C 
ATOM     31  N   VAL A   5     -17.882  10.279  17.443  1.00  0.00    -0.180 N 
ATOM     32  CA  VAL A   5     -18.590  11.545  17.606  1.00  0.00    +0.174 C 
ATOM     33  C   VAL A   5     -18.050  12.567  16.617  1.00  0.00    +0.223 C 
ATOM     34  O   VAL A   5     -16.839  12.737  16.493  1.00  0.00    -0.384 OA
ATOM     35  CB  VAL A   5     -18.462  12.091  19.019  1.00  0.00    +0.022 C 
ATOM     36  CG1 VAL A   5     -19.834  12.222  19.674  1.00  0.00    +0.002 C 
ATOM     37  CG2 VAL A   5     -17.617  11.151  19.876  1.00  0.00    +0.093 C 
ATOM     38  N   THR A   6     -18.949  13.248  15.913  1.00  0.00    -0.225 NA
ATOM     39  CA  THR A   6     -18.718  14.634  15.520  1.00  0.00    +0.170 C 
ATOM     40  C   THR A   6     -18.706  15.542  16.739  1.00  0.00    +0.259 C 
ATOM     41  O   THR A   6     -19.744  16.072  17.133  1.00  0.00    -0.272 OA
ATOM     42  CB  THR A   6     -19.774  15.115  14.538  1.00  0.00    +0.176 C 
ATOM     43  OG1 THR A   6     -21.065  14.723  15.010  1.00  0.00    -0.221 OA
ATOM     44  CG2 THR A   6     -19.547  14.518  13.149  1.00  0.00    +0.037 C 
ATOM     45  N   ALA A   7     -17.531  15.725  17.336  1.00  0.00    -0.178 N 
ATOM     46  CA  ALA A   7     -16.277  15.438  16.647  1.00  0.00    +0.104 C 
ATOM     47  C   ALA A   7     -16.172  13.961  16.296  1.00  0.00    +0.123 C 
ATOM     48  O   ALA A   7     -15.698  13.609  15.217  1.00  0.00    -0.361 OA
ATOM     49  CB  ALA A   7     -15.086  15.841  17.501  1.00  0.00    +0.014 C 
ATOM     50  N   LEU A   8     -16.615  13.099  17.206  1.00  0.00    +0.443 N 
ATOM     51  CA  LEU A   8     -17.934  13.247  17.816  1.00  0.00    +0.107 C 
ATOM     52  C   LEU A   8     -17.816  13.772  19.237  1.00  0.00    +0.220 C 
ATOM     53  O   LEU A   8     -16.863  13.450  19.944  1.00  0.00    -0.202 OA
ATOM     54  CB  LEU A   8     -18.676  11.921  17.824  1.00  0.00    +0.044 C 
ATOM     55  CG  LEU A   8     -19.533  11.622  16.592  1.00  0.00    +0.061 C 
ATOM     56  CD1 LEU A   8     -20.361  12.846  16.217  1.00  0.00    +0.081 C 
ATOM     57  CD2 LEU A   8     -20.670  10.670  16.949  1.00  0.00    +0.006 C 
ATOM     58  N   LEU A   9     -18.786  14.580  19.656  1.00  0.00    -0.183 NA
ATOM     59  CA  LEU A   9     -19.034  14.795  21.079  1.00  0.00    +0.153 C 
ATOM     60  C   LEU A   9     -20.390  14.239  21.482  1.00  0.00    +0.258 C 
ATOM     61  O   LEU A   9     -21.425  14.727  21.034  1.00  0.00    -0.272 OA
ATOM     62  CB  LEU A   9     -18.972  16.276  21.418  1.00  0.00    +0.027 C 
ATOM     63  CG  LEU A   9     -17.572  16.874  21.572  1.00  0.00    +0.002 C 
ATOM     64  CD1 LEU A   9     -17.522  17.795  22.785  1.00  0.00    +0.000 C 
ATOM     65  CD2 LEU A   9     -17.309  17.910  20.483  1.00  0.00    +0.000 C 
ATOM     66  N   VAL A  10     -20.385  13.215  22.331  1.00  0.00    -0.196 N 
ATOM     67  CA  VAL A  10     -20.317  11.835  21.857  1.00  0.00    +0.176 C 
ATOM     68  C   VAL A  10     -21.582  11.091  22.257  1.00  0.00    +0.261 C 
ATOM     69  O   VAL A  10     -22.114  11.305  23.346  1.00  0.00    -0.271 OA
ATOM     70  CB  VAL A  10     -19.104  11.105  22.408  1.00  0.00    +0.073 C 
ATOM     71  CG1 VAL A  10     -18.677   9.981  21.464  1.00  0.00    +0.006 C 
ATOM     72  CG2 VAL A  10     -17.927  12.066  22.559  1.00  0.00    +0.211 C 
ATOM     73  N   VAL A  11     -22.064  10.219  21.377  1.00  0.00    -0.202 N 
ATOM     74  CA  VAL A  11     -22.625   8.941  21.805  1.00  0.00    +0.139 C 
ATOM     75  C   VAL A  11     -21.779   7.800  21.264  1.00  0.00    +0.210 C 
ATOM     76  O   VAL A  11     -21.387   7.812  20.098  1.00  0.00    -0.338 OA
ATOM     77  CB  VAL A  11     -24.062   8.769  21.341  1.00  0.00    +0.024 C 
ATOM     78  CG1 VAL A  11     -24.952   9.864  21.923  1.00  0.00    +0.002 C 
ATOM     79  CG2 VAL A  11     -24.144   8.854  19.819  1.00  0.00    +0.002 C 
ATOM     80  N   PHE A  12     -21.493   6.815  22.109  1.00  0.00    -0.182 NA
ATOM     81  CA  PHE A  12     -20.965   7.085  23.442  1.00  0.00    +0.157 C 
ATOM     82  C   PHE A  12     -19.450   6.957  23.459  1.00  0.00    +0.258 C 
ATOM     83  O   PHE A  12     -18.773   7.651  24.214  1.00  0.00    -0.272 OA
ATOM     84  CB  PHE A  12     -21.566   6.136  24.467  1.00  0.00    +0.053 C 
ATOM     85  CG  PHE A  12     -21.310   6.538  25.889  1.00  0.00    -0.020 A 
ATOM     86  CD1 PHE A  12     -20.546   7.666  26.165  1.00  0.00    -0.004 A 
ATOM     87  CE1 PHE A  12     -20.308   8.037  27.484  1.00  0.00    -0.000 A 
ATOM     88  CD2 PHE A  12     -21.837   5.783  26.930  1.00  0.00    -0.004 A 
ATOM     89  CE2 PHE A  12     -21.601   6.156  28.248  1.00  0.00    -0.000 A 
ATOM     90  CZ  PHE A  12     -20.836   7.283  28.525  1.00  0.00    -0.000 A 
ATOM     91  N   ALA A  13     -18.919   6.067  22.626  1.00  0.00    -0.197 N 
ATOM     92  CA  ALA A  13     -17.493   6.074  22.312  1.00  0.00    +0.173 C 
ATOM     93  C   ALA A  13     -17.150   7.210  21.363  1.00  0.00    +0.262 C 
ATOM     94  O   ALA A  13     -17.830   7.413  20.358  1.00  0.00    -0.271 OA
ATOM     95  CB  ALA A  13     -17.068   4.753  21.696  1.00  0.00    +0.033 C 
ATOM     96  N   GLU A  14     -16.093   7.954  21.681  1.00  0.00    -0.196 N 
ATOM     97  CA  GLU A  14     -16.043   9.379  21.363  1.00  0.00    +0.172 C 
ATOM     98  C   GLU A  14     -15.691   9.602  19.901  1.00  0.00    +0.246 C 
ATOM     99  O   GLU A  14     -14.681   9.095  19.417  1.00  0.00    -0.273 OA
ATOM    100  CB  GLU A  14     -15.033  10.096  22.243  1.00  0.00    +0.043 C 
ATOM    101  CG  GLU A  14     -14.725  11.514  21.792  1.00  0.00    +0.112 C 
ATOM    102  CD  GLU A  14     -15.807  12.514  22.169  1.00  0.00    +0.317 C 
ATOM    103  OE1 GLU A  14     -16.640  12.204  23.046  1.00  0.00    -0.448 OA
ATOM    104  OE2 GLU A  14     -15.819  13.616  21.578  1.00  0.00    -0.250 OA
ATOM    105  N   SER A  15     -16.524  10.365  19.197  1.00  0.00    -0.278 N 
ATOM    106  CA  SER A  15     -16.036  11.483  18.395  1.00  0.00    +0.107 C 
ATOM    107  C   SER A  15     -16.432  12.815  19.010  1.00  0.00    +0.242 C 
ATOM    108  O   SER A  15     -17.578  13.001  19.416  1.00  0.00    -0.205 OA
ATOM    109  CB  SER A  15     -16.574  11.399  16.976  1.00  0.00    -0.002 C 
ATOM    110  OG  SER A  15     -17.923  11.829  16.924  1.00  0.00    -0.311 OA
ATOM    111  N   SER A  16     -15.484  13.746  19.078  1.00  0.00    -0.181 NA
ATOM    112  CA  SER A  16     -15.798  15.129  19.418  1.00  0.00    +0.172 C 
ATOM    113  C   SER A  16     -16.592  15.803  18.310  1.00  0.00    +0.284 C 
ATOM    114  O   SER A  16     -17.327  16.757  18.561  1.00  0.00    -0.183 OA
ATOM    115  CB  SER A  16     -14.527  15.919  19.684  1.00  0.00    +0.205 C 
ATOM    116  OG  SER A  16     -13.595  15.739  18.634  1.00  0.00    -0.219 OA
ATOM    117  N   ASP A  17     -16.445  15.308  17.085  1.00  0.00    -0.158 NA
ATOM    118  CA  ASP A  17     -15.369  15.758  16.207  1.00  0.00    +0.121 C 
ATOM    119  C   ASP A  17     -15.850  16.858  15.274  1.00  0.00    +0.245 C 
ATOM    120  O   ASP A  17     -17.003  16.854  14.845  1.00  0.00    -0.273 OA
ATOM    121  CB  ASP A  17     -14.817  14.605  15.387  1.00  0.00    +0.225 C 
ATOM    122  CG  ASP A  17     -14.266  13.476  16.244  1.00  0.00    +0.392 C 
ATOM    123  OD1 ASP A  17     -13.468  13.745  17.168  1.00  0.00    -0.243 OA
ATOM    124  OD2 ASP A  17     -14.634  12.308  15.991  1.00  0.00    -0.243 OA
ATOM    125  N   LYS A  18     -14.968  17.803  14.960  1.00  0.00    -0.198 N 
ATOM    126  CA  LYS A  18     -15.373  19.020  14.262  1.00  0.00    +0.173 C 
ATOM    127  C   LYS A  18     -14.355  19.409  13.203  1.00  0.00    +0.262 C 
ATOM    128  O   LYS A  18     -13.163  19.153  13.361  1.00  0.00    -0.271 OA
ATOM    129  CB  LYS A  18     -15.551  20.170  15.241  1.00  0.00    +0.031 C 
ATOM    130  CG  LYS A  18     -16.899  20.174  15.942  1.00  0.00    +0.009 C 
ATOM    131  CD  LYS A  18     -17.243  21.549  16.495  1.00  0.00    +0.049 C 
ATOM    132  CE  LYS A  18     -18.349  22.163  15.765  1.00  0.00    +0.096 C 
ATOM    133  NZ  LYS A  18     -18.209  23.030  14.766  1.00  0.00    -0.151 NA
ATOM    134  N   LEU A  19     -14.824  20.024  12.122  1.00  0.00    -0.196 N 
ATOM    135  CA  LEU A  19     -13.944  20.404  11.021  1.00  0.00    +0.173 C 
ATOM    136  C   LEU A  19     -13.763  21.911  10.965  1.00  0.00    +0.262 C 
ATOM    137  O   LEU A  19     -14.741  22.658  10.946  1.00  0.00    -0.271 OA
ATOM    138  CB  LEU A  19     -14.499  19.910   9.694  1.00  0.00    +0.031 C 
ATOM    139  CG  LEU A  19     -13.567  20.030   8.486  1.00  0.00    +0.002 C 
ATOM    140  CD1 LEU A  19     -14.207  19.396   7.259  1.00  0.00    +0.000 C 
ATOM    141  CD2 LEU A  19     -12.372  19.094   8.637  1.00  0.00    +0.000 C 
ATOM    142  N   ARG A  20     -12.512  22.361  10.939  1.00  0.00    -0.196 N 
ATOM    143  CA  ARG A  20     -12.161  23.593  10.237  1.00  0.00    +0.173 C 
ATOM    144  C   ARG A  20     -12.038  23.351   8.742  1.00  0.00    +0.262 C 
ATOM    145  O   ARG A  20     -12.988  22.907   8.100  1.00  0.00    -0.271 OA
ATOM    146  CB  ARG A  20     -10.859  24.168  10.768  1.00  0.00    +0.033 C 
ATOM    147  CG  ARG A  20     -10.524  25.543  10.216  1.00  0.00    +0.026 C 
ATOM    148  CD  ARG A  20      -9.193  25.549   9.481  1.00  0.00    +0.115 C 
ATOM    149  NE  ARG A  20      -9.330  25.059   8.112  1.00  0.00    -0.205 N 
ATOM    150  CZ  ARG A  20      -8.550  24.137   7.555  1.00  0.00    +0.241 C 
ATOM    151  NH1 ARG A  20      -7.857  23.287   8.310  1.00  0.00    -0.111 NA
ATOM    152  NH2 ARG A  20      -8.461  24.066   6.230  1.00  0.00    -0.204 N 
ATOM    153  N   ARG A  21     -10.866  23.641   8.185  1.00  0.00    -0.192 N 
ATOM    154  CA  ARG A  21     -10.619  23.412   6.764  1.00  0.00    +0.218 C 
ATOM    155  C   ARG A  21     -10.147  21.989   6.517  1.00  0.00    +0.386 C 
ATOM    156  O   ARG A  21      -8.982  21.766   6.189  1.00  0.00    -0.244 OA
ATOM    157  CB  ARG A  21      -9.587  24.390   6.229  1.00  0.00    +0.128 C 
ATOM    158  CG  ARG A  21     -10.141  25.780   5.953  1.00  0.00    +0.050 C 
ATOM    159  CD  ARG A  21      -9.047  26.753   5.552  1.00  0.00    +0.131 C 
ATOM    160  NE  ARG A  21      -9.595  28.047   5.152  1.00  0.00    -0.234 NA
ATOM    161  CZ  ARG A  21      -8.871  29.133   4.900  1.00  0.00    +0.284 C 
ATOM    162  NH1 ARG A  21      -7.549  29.054   4.782  1.00  0.00    -0.104 N 
ATOM    163  NH2 ARG A  21      -9.476  30.309   4.764  1.00  0.00    -0.104 N 
ATOM    164  OXT ARG A  21     -10.922  21.042   6.639  1.00  0.00    -0.244 OA
ATOM    165  H   ASP A   1     -21.797   2.677  11.459  1.00  0.00    +0.000 HD
ATOM    166  H   ASP A   1     -20.619   1.783  10.692  1.00  0.00    +0.000 HD
ATOM    167  H   ASP A   1     -18.002   1.986  15.017  1.00  0.00    +0.000 HD
ATOM    168  H   LYS A   2     -20.878   1.299  15.191  1.00  0.00    +0.000 HD
ATOM    169  H   LYS A   2     -26.264   0.440  19.522  1.00  0.00    +0.000 HD
ATOM    170  H   LEU A   3     -22.196   5.258  17.584  1.00  0.00    +0.000 HD
ATOM    171  H   ALA A   4     -18.256   6.388  15.452  1.00  0.00    +0.000 HD
ATOM    172  H   VAL A   5     -17.064  10.115  17.965  1.00  0.00    +0.000 HD
ATOM    173  H   THR A   6     -21.107  13.756  15.071  1.00  0.00    +0.000 HD
ATOM    174  H   LEU A   9     -18.590  15.498  19.255  1.00  0.00    +0.000 HD
ATOM    175  H   VAL A  10     -20.428  13.390  23.299  1.00  0.00    +0.000 HD
ATOM    176  H   VAL A  11     -22.042  10.439  20.418  1.00  0.00    +0.000 HD
ATOM    177  H   PHE A  12     -22.357   6.289  22.243  1.00  0.00    +0.000 HD
ATOM    178  H   ALA A  13     -19.499   5.387  22.212  1.00  0.00    +0.000 HD
ATOM    179  H   GLU A  14     -15.329   7.536  22.139  1.00  0.00    +0.000 HD
ATOM    180  H   SER A  16     -15.036  13.769  18.163  1.00  0.00    +0.000 HD
ATOM    181  H   SER A  16     -17.288  16.955  19.510  1.00  0.00    +0.000 HD
ATOM    182  H   SER A  16     -13.362  14.801  18.566  1.00  0.00    +0.000 HD
ATOM    183  H   ASP A  17     -13.216  14.635  17.326  1.00  0.00    +0.000 HD
ATOM    184  H   LYS A  18     -14.022  17.679  15.204  1.00  0.00    +0.000 HD
ATOM    185  H   LYS A  18     -17.309  23.300  14.470  1.00  0.00    +0.000 HD
ATOM    186  H   LEU A  19     -15.785  20.228  12.064  1.00  0.00    +0.000 HD
ATOM    187  H   ARG A  20     -11.807  21.853  11.401  1.00  0.00    +0.000 HD
ATOM    188  H   ARG A  20     -10.053  25.438   7.563  1.00  0.00    +0.000 HD
ATOM    189  H   ARG A  20      -7.920  23.337   9.291  1.00  0.00    +0.000 HD
ATOM    190  H   ARG A  20      -7.772  23.844   5.562  1.00  0.00    +0.000 HD
ATOM    191  H   ARG A  21     -10.148  24.018   8.743  1.00  0.00    +0.000 HD
ATOM    192  H   ARG A  21      -8.379  22.476   6.091  1.00  0.00    +0.000 HD
ATOM    193  H   ARG A  21      -7.097  28.185   4.882  1.00  0.00    +0.000 HD
ATOM    194  H   ARG A  21      -7.021  29.864   4.595  1.00  0.00    +0.000 HD
ATOM    195  H   ARG A  21     -10.455  30.373   4.850  1.00  0.00    +0.000 HD
ATOM    196  H   ARG A  21      -8.945  31.117   4.577  1.00  0.00    +0.000 HD
ENDROOT
TORSDOF 0
