REMARK  Name = /var/folders/yp/yjbh3p597675h2qddgqr02y00000gn/T/tmp5nq9yai1.pdb
REMARK     285 UNITARY VALUES FOR THE UNIT CELL AUTOMATICALLY SET
REMARK     285 BY MDANALYSIS PDBWRITER BECAUSE UNIT CELL INFORMATION
REMARK     285 WAS MISSING.
REMARK     285 PROTEIN DATA BANK CONVENTIONS REQUIRE THAT
REMARK     285 CRYST1 RECORD IS INCLUDED, BUT THE VALUES ON
REMARK     285 THIS RECORD ARE MEANINGLESS.
REMARK     285 UNITARY VALUES FOR THE UNIT CELL AUTOMATICALLY SET
REMARK     285 BY MDANALYSIS PDBWRITER BECAUSE UNIT CELL INFORMATION
REMARK     285 WAS MISSING.
REMARK     285 PROTEIN DATA BANK CONVENTIONS REQUIRE THAT
REMARK     285 CRYST1 RECORD IS INCLUDED, BUT THE VALUES ON
REMARK     285 THIS RECORD ARE MEANINGLESS.
REMARK                            x       y       z     vdW  Elec       q    Type
REMARK                         _______ _______ _______ _____ _____    ______ ____
ROOT
ATOM      1  N   ASP A   1      15.620   8.847 -13.186  1.00  0.00    -0.122 NA
ATOM      2  CA  ASP A   1      16.244  10.043 -13.746  1.00  0.00    +0.181 C 
ATOM      3  C   ASP A   1      16.095  11.227 -12.804  1.00  0.00    +0.260 C 
ATOM      4  O   ASP A   1      15.139  11.296 -12.033  1.00  0.00    -0.272 OA
ATOM      5  CB  ASP A   1      15.639  10.390 -15.096  1.00  0.00    +0.142 C 
ATOM      6  CG  ASP A   1      16.685  10.704 -16.153  1.00  0.00    +0.367 C 
ATOM      7  OD1 ASP A   1      16.946  11.897 -16.418  1.00  0.00    -0.246 OA
ATOM      8  OD2 ASP A   1      17.254   9.749 -16.725  1.00  0.00    -0.246 OA
ATOM      9  N   LYS A   2      17.040  12.160 -12.866  1.00  0.00    -0.197 N 
ATOM     10  CA  LYS A   2      17.251  13.102 -11.771  1.00  0.00    +0.173 C 
ATOM     11  C   LYS A   2      16.287  14.274 -11.862  1.00  0.00    +0.262 C 
ATOM     12  O   LYS A   2      15.893  14.673 -12.957  1.00  0.00    -0.271 OA
ATOM     13  CB  LYS A   2      18.681  13.620 -11.771  1.00  0.00    +0.031 C 
ATOM     14  CG  LYS A   2      19.731  12.525 -11.828  1.00  0.00    +0.009 C 
ATOM     15  CD  LYS A   2      19.770  11.711 -10.545  1.00  0.00    +0.049 C 
ATOM     16  CE  LYS A   2      18.496  11.045 -10.290  1.00  0.00    +0.096 C 
ATOM     17  NZ  LYS A   2      18.359   9.888  -9.649  1.00  0.00    -0.151 NA
ATOM     18  N   LEU A   3      15.906  14.825 -10.713  1.00  0.00    -0.196 N 
ATOM     19  CA  LEU A   3      14.639  14.467 -10.082  1.00  0.00    +0.173 C 
ATOM     20  C   LEU A   3      13.467  15.050 -10.854  1.00  0.00    +0.262 C 
ATOM     21  O   LEU A   3      13.535  16.182 -11.331  1.00  0.00    -0.271 OA
ATOM     22  CB  LEU A   3      14.596  14.960  -8.646  1.00  0.00    +0.031 C 
ATOM     23  CG  LEU A   3      15.361  14.119  -7.622  1.00  0.00    +0.002 C 
ATOM     24  CD1 LEU A   3      14.651  14.153  -6.273  1.00  0.00    +0.000 C 
ATOM     25  CD2 LEU A   3      16.658  14.813  -7.219  1.00  0.00    +0.000 C 
ATOM     26  N   ALA A   4      12.391  14.278 -10.978  1.00  0.00    -0.196 N 
ATOM     27  CA  ALA A   4      11.058  14.851 -11.139  1.00  0.00    +0.173 C 
ATOM     28  C   ALA A   4      10.608  15.552  -9.868  1.00  0.00    +0.262 C 
ATOM     29  O   ALA A   4      10.936  15.120  -8.764  1.00  0.00    -0.271 OA
ATOM     30  CB  ALA A   4      10.050  13.776 -11.510  1.00  0.00    +0.034 C 
ATOM     31  N   VAL A   5       9.854  16.638 -10.022  1.00  0.00    -0.196 N 
ATOM     32  CA  VAL A   5       8.483  16.546 -10.515  1.00  0.00    +0.173 C 
ATOM     33  C   VAL A   5       8.490  16.248 -12.005  1.00  0.00    +0.262 C 
ATOM     34  O   VAL A   5       8.722  17.140 -12.819  1.00  0.00    -0.271 OA
ATOM     35  CB  VAL A   5       7.702  17.825 -10.257  1.00  0.00    +0.029 C 
ATOM     36  CG1 VAL A   5       6.222  17.519 -10.037  1.00  0.00    +0.002 C 
ATOM     37  CG2 VAL A   5       8.228  18.528  -9.008  1.00  0.00    +0.002 C 
ATOM     38  N   THR A   6       8.236  14.993 -12.363  1.00  0.00    -0.194 N 
ATOM     39  CA  THR A   6       8.242  14.586 -13.765  1.00  0.00    +0.203 C 
ATOM     40  C   THR A   6       6.954  15.007 -14.452  1.00  0.00    +0.264 C 
ATOM     41  O   THR A   6       6.899  15.090 -15.680  1.00  0.00    -0.271 OA
ATOM     42  CB  THR A   6       8.424  13.084 -13.904  1.00  0.00    +0.181 C 
ATOM     43  OG1 THR A   6       7.187  12.431 -13.601  1.00  0.00    -0.221 OA
ATOM     44  CG2 THR A   6       9.506  12.569 -12.954  1.00  0.00    +0.037 C 
ATOM     45  N   ALA A   7       5.917  15.275 -13.665  1.00  0.00    -0.196 N 
ATOM     46  CA  ALA A   7       4.558  15.350 -14.195  1.00  0.00    +0.173 C 
ATOM     47  C   ALA A   7       4.372  16.595 -15.047  1.00  0.00    +0.262 C 
ATOM     48  O   ALA A   7       3.467  16.653 -15.877  1.00  0.00    -0.271 OA
ATOM     49  CB  ALA A   7       3.539  15.348 -13.068  1.00  0.00    +0.033 C 
ATOM     50  N   LEU A   8       5.230  17.590 -14.844  1.00  0.00    -0.196 N 
ATOM     51  CA  LEU A   8       4.894  18.967 -15.191  1.00  0.00    +0.173 C 
ATOM     52  C   LEU A   8       5.074  19.209 -16.680  1.00  0.00    +0.262 C 
ATOM     53  O   LEU A   8       4.145  19.644 -17.359  1.00  0.00    -0.271 OA
ATOM     54  CB  LEU A   8       5.753  19.946 -14.409  1.00  0.00    +0.033 C 
ATOM     55  CG  LEU A   8       5.522  21.430 -14.701  1.00  0.00    +0.000 C 
ATOM     56  CD1 LEU A   8       6.788  22.228 -14.414  1.00  0.00    +0.000 C 
ATOM     57  CD2 LEU A   8       4.612  22.048 -13.647  1.00  0.00    +0.005 C 
ATOM     58  N   LEU A   9       6.270  18.928 -17.190  1.00  0.00    -0.196 N 
ATOM     59  CA  LEU A   9       7.455  19.694 -16.819  1.00  0.00    +0.173 C 
ATOM     60  C   LEU A   9       7.884  20.610 -17.954  1.00  0.00    +0.262 C 
ATOM     61  O   LEU A   9       7.921  20.196 -19.111  1.00  0.00    -0.271 OA
ATOM     62  CB  LEU A   9       8.603  18.769 -16.454  1.00  0.00    +0.031 C 
ATOM     63  CG  LEU A   9       8.440  17.973 -15.156  1.00  0.00    +0.002 C 
ATOM     64  CD1 LEU A   9       9.565  18.309 -14.185  1.00  0.00    +0.000 C 
ATOM     65  CD2 LEU A   9       8.762  16.501 -15.386  1.00  0.00    +0.000 C 
ATOM     66  N   VAL A  10       8.207  21.857 -17.625  1.00  0.00    -0.196 N 
ATOM     67  CA  VAL A  10       9.498  22.431 -17.994  1.00  0.00    +0.173 C 
ATOM     68  C   VAL A  10      10.246  22.862 -16.743  1.00  0.00    +0.262 C 
ATOM     69  O   VAL A  10       9.994  23.938 -16.204  1.00  0.00    -0.271 OA
ATOM     70  CB  VAL A  10       9.344  23.620 -18.929  1.00  0.00    +0.029 C 
ATOM     71  CG1 VAL A  10      10.652  24.399 -19.030  1.00  0.00    +0.002 C 
ATOM     72  CG2 VAL A  10       8.967  23.149 -20.331  1.00  0.00    +0.002 C 
ATOM     73  N   VAL A  11      11.170  22.024 -16.281  1.00  0.00    -0.196 N 
ATOM     74  CA  VAL A  11      10.884  21.114 -15.175  1.00  0.00    +0.173 C 
ATOM     75  C   VAL A  11      10.627  21.912 -13.907  1.00  0.00    +0.262 C 
ATOM     76  O   VAL A  11      11.332  22.880 -13.623  1.00  0.00    -0.271 OA
ATOM     77  CB  VAL A  11      12.025  20.137 -14.936  1.00  0.00    +0.029 C 
ATOM     78  CG1 VAL A  11      11.628  18.729 -15.373  1.00  0.00    +0.002 C 
ATOM     79  CG2 VAL A  11      13.256  20.550 -15.739  1.00  0.00    +0.002 C 
ATOM     80  N   PHE A  12       9.616  21.508 -13.143  1.00  0.00    -0.196 N 
ATOM     81  CA  PHE A  12       9.301  22.176 -11.884  1.00  0.00    +0.173 C 
ATOM     82  C   PHE A  12      10.332  21.837 -10.821  1.00  0.00    +0.262 C 
ATOM     83  O   PHE A  12      10.482  20.676 -10.445  1.00  0.00    -0.271 OA
ATOM     84  CB  PHE A  12       7.916  21.781 -11.393  1.00  0.00    +0.035 C 
ATOM     85  CG  PHE A  12       6.808  22.170 -12.324  1.00  0.00    +0.024 C 
ATOM     86  CD1 PHE A  12       6.200  23.414 -12.200  1.00  0.00    -0.031 C 
ATOM     87  CE1 PHE A  12       5.172  23.775 -13.064  1.00  0.00    -0.031 C 
ATOM     88  CD2 PHE A  12       6.389  21.288 -13.314  1.00  0.00    +0.004 C 
ATOM     89  CE2 PHE A  12       5.363  21.648 -14.178  1.00  0.00    +0.001 C 
ATOM     90  CZ  PHE A  12       4.754  22.893 -14.053  1.00  0.00    +0.026 C 
ATOM     91  N   ALA A  13      11.045  22.850 -10.337  1.00  0.00    -0.196 N 
ATOM     92  CA  ALA A  13      11.513  22.859  -8.954  1.00  0.00    +0.173 C 
ATOM     93  C   ALA A  13      10.400  23.275  -8.004  1.00  0.00    +0.262 C 
ATOM     94  O   ALA A  13       9.690  24.245  -8.262  1.00  0.00    -0.271 OA
ATOM     95  CB  ALA A  13      12.697  23.797  -8.791  1.00  0.00    +0.033 C 
ATOM     96  N   GLU A  14      10.249  22.541  -6.906  1.00  0.00    -0.196 N 
ATOM     97  CA  GLU A  14      10.240  23.151  -5.580  1.00  0.00    +0.173 C 
ATOM     98  C   GLU A  14      11.612  23.690  -5.214  1.00  0.00    +0.262 C 
ATOM     99  O   GLU A  14      12.625  23.033  -5.450  1.00  0.00    -0.271 OA
ATOM    100  CB  GLU A  14       9.789  22.151  -4.526  1.00  0.00    +0.043 C 
ATOM    101  CG  GLU A  14       9.762  22.715  -3.116  1.00  0.00    +0.116 C 
ATOM    102  CD  GLU A  14       9.232  21.733  -2.085  1.00  0.00    +0.365 C 
ATOM    103  OE1 GLU A  14       8.909  20.583  -2.453  1.00  0.00    -0.246 OA
ATOM    104  OE2 GLU A  14       9.142  22.115  -0.898  1.00  0.00    -0.246 OA
ATOM    105  N   SER A  15      11.648  24.886  -4.634  1.00  0.00    -0.194 N 
ATOM    106  CA  SER A  15      12.907  25.477  -4.188  1.00  0.00    +0.205 C 
ATOM    107  C   SER A  15      13.405  24.816  -2.913  1.00  0.00    +0.264 C 
ATOM    108  O   SER A  15      12.649  24.654  -1.958  1.00  0.00    -0.271 OA
ATOM    109  CB  SER A  15      12.744  26.971  -3.955  1.00  0.00    +0.213 C 
ATOM    110  OG  SER A  15      11.972  27.217  -2.794  1.00  0.00    -0.218 OA
ATOM    111  N   SER A  16      14.679  24.433  -2.899  1.00  0.00    -0.194 N 
ATOM    112  CA  SER A  16      15.495  24.552  -1.695  1.00  0.00    +0.205 C 
ATOM    113  C   SER A  16      15.708  26.009  -1.315  1.00  0.00    +0.264 C 
ATOM    114  O   SER A  16      15.903  26.858  -2.183  1.00  0.00    -0.271 OA
ATOM    115  CB  SER A  16      16.843  23.876  -1.891  1.00  0.00    +0.213 C 
ATOM    116  OG  SER A  16      16.686  22.478  -2.053  1.00  0.00    -0.218 OA
ATOM    117  N   ASP A  17      15.671  26.297  -0.017  1.00  0.00    -0.196 N 
ATOM    118  CA  ASP A  17      15.868  27.662   0.464  1.00  0.00    +0.181 C 
ATOM    119  C   ASP A  17      17.219  27.812   1.143  1.00  0.00    +0.236 C 
ATOM    120  O   ASP A  17      17.579  27.006   2.003  1.00  0.00    -0.274 OA
ATOM    121  CB  ASP A  17      14.766  28.061   1.432  1.00  0.00    +0.139 C 
ATOM    122  CG  ASP A  17      14.659  29.565   1.624  1.00  0.00    +0.309 C 
ATOM    123  OD1 ASP A  17      15.704  30.251   1.657  1.00  0.00    -0.479 OA
ATOM    124  OD2 ASP A  17      13.521  30.067   1.746  1.00  0.00    -0.251 OA
ATOM    125  N   LYS A  18      17.968  28.841   0.763  1.00  0.00    -0.287 N 
ATOM    126  CA  LYS A  18      18.546  29.764   1.736  1.00  0.00    +0.102 C 
ATOM    127  C   LYS A  18      17.876  31.126   1.660  1.00  0.00    +0.024 C 
ATOM    128  O   LYS A  18      18.525  32.152   1.861  1.00  0.00    -0.267 OA
ATOM    129  CB  LYS A  18      20.041  29.919   1.513  1.00  0.00    +0.009 C 
ATOM    130  CG  LYS A  18      20.853  28.703   1.922  1.00  0.00    +0.006 C 
ATOM    131  CD  LYS A  18      20.966  28.582   3.433  1.00  0.00    +0.049 C 
ATOM    132  CE  LYS A  18      21.912  27.538   3.821  1.00  0.00    +0.096 C 
ATOM    133  NZ  LYS A  18      21.618  26.498   4.595  1.00  0.00    -0.151 NA
ATOM    134  N   LEU A  19      16.577  31.137   1.371  1.00  0.00    -0.238 NA
ATOM    135  CA  LEU A  19      15.866  32.386   1.118  1.00  0.00    +0.092 C 
ATOM    136  C   LEU A  19      14.976  32.752   2.294  1.00  0.00    +0.231 C 
ATOM    137  O   LEU A  19      14.461  33.867   2.363  1.00  0.00    -0.275 OA
ATOM    138  CB  LEU A  19      15.022  32.278  -0.143  1.00  0.00    -0.003 C 
ATOM    139  CG  LEU A  19      14.360  33.571  -0.622  1.00  0.00    -0.001 C 
ATOM    140  CD1 LEU A  19      13.174  33.253  -1.525  1.00  0.00    -0.000 C 
ATOM    141  CD2 LEU A  19      15.245  34.279  -1.642  1.00  0.00    -0.000 C 
ATOM    142  N   ARG A  20      14.795  31.816   3.220  1.00  0.00    -0.199 N 
ATOM    143  CA  ARG A  20      13.690  31.890   4.170  1.00  0.00    +0.173 C 
ATOM    144  C   ARG A  20      13.921  32.994   5.189  1.00  0.00    +0.262 C 
ATOM    145  O   ARG A  20      13.029  33.798   5.452  1.00  0.00    -0.271 OA
ATOM    146  CB  ARG A  20      13.504  30.565   4.892  1.00  0.00    +0.033 C 
ATOM    147  CG  ARG A  20      12.115  30.372   5.477  1.00  0.00    +0.029 C 
ATOM    148  CD  ARG A  20      11.982  29.036   6.189  1.00  0.00    +0.129 C 
ATOM    149  NE  ARG A  20      10.595  28.582   6.229  1.00  0.00    -0.234 NA
ATOM    150  CZ  ARG A  20      10.211  27.339   6.506  1.00  0.00    +0.284 C 
ATOM    151  NH1 ARG A  20      11.112  26.386   6.734  1.00  0.00    -0.104 N 
ATOM    152  NH2 ARG A  20       8.915  27.045   6.554  1.00  0.00    -0.104 N 
ATOM    153  N   ARG A  21      15.120  33.035   5.761  1.00  0.00    -0.194 N 
ATOM    154  CA  ARG A  21      15.323  32.586   7.136  1.00  0.00    +0.198 C 
ATOM    155  C   ARG A  21      15.558  33.766   8.064  1.00  0.00    +0.384 C 
ATOM    156  O   ARG A  21      15.052  33.790   9.185  1.00  0.00    -0.244 OA
ATOM    157  CB  ARG A  21      16.499  31.627   7.226  1.00  0.00    +0.035 C 
ATOM    158  CG  ARG A  21      16.543  30.601   6.105  1.00  0.00    +0.021 C 
ATOM    159  CD  ARG A  21      16.890  31.240   4.769  1.00  0.00    +0.088 C 
ATOM    160  NE  ARG A  21      16.796  30.280   3.673  1.00  0.00    -0.217 NA
ATOM    161  CZ  ARG A  21      16.965  30.577   2.388  1.00  0.00    +0.139 C 
ATOM    162  NH1 ARG A  21      17.396  31.781   2.023  1.00  0.00    +0.458 N 
ATOM    163  NH2 ARG A  21      16.701  29.662   1.461  1.00  0.00    +0.466 N 
ATOM    164  OXT ARG A  21      16.256  34.714   7.706  1.00  0.00    -0.244 OA
ATOM    165  H   ASP A   1      15.733   8.069 -13.836  1.00  0.00    +0.000 HD
ATOM    166  H   ASP A   1      14.626   9.021 -13.034  1.00  0.00    +0.000 HD
ATOM    167  H   ASP A   1      17.031   8.867 -16.499  1.00  0.00    +0.000 HD
ATOM    168  H   LYS A   2      17.609  12.217 -13.668  1.00  0.00    +0.000 HD
ATOM    169  H   LYS A   2      19.154   9.418  -9.307  1.00  0.00    +0.000 HD
ATOM    170  H   LEU A   3      16.491  15.487 -10.279  1.00  0.00    +0.000 HD
ATOM    171  H   ALA A   4      12.496  13.299 -10.960  1.00  0.00    +0.000 HD
ATOM    172  H   VAL A   5      10.228  17.521  -9.799  1.00  0.00    +0.000 HD
ATOM    173  H   THR A   6       8.041  14.324 -11.668  1.00  0.00    +0.000 HD
ATOM    174  H   THR A   6       6.930  12.634 -12.689  1.00  0.00    +0.000 HD
ATOM    175  H   ALA A   7       6.068  15.427 -12.703  1.00  0.00    +0.000 HD
ATOM    176  H   LEU A   8       6.111  17.393 -14.451  1.00  0.00    +0.000 HD
ATOM    177  H   LEU A   9       6.357  18.185 -17.830  1.00  0.00    +0.000 HD
ATOM    178  H   VAL A  10       7.563  22.405 -17.121  1.00  0.00    +0.000 HD
ATOM    179  H   VAL A  11      12.064  22.016 -16.694  1.00  0.00    +0.000 HD
ATOM    180  H   PHE A  12       9.068  20.743 -13.432  1.00  0.00    +0.000 HD
ATOM    181  H   ALA A  13      11.262  23.610 -10.924  1.00  0.00    +0.000 HD
ATOM    182  H   GLU A  14      10.142  21.566  -6.989  1.00  0.00    +0.000 HD
ATOM    183  H   GLU A  14       9.396  22.986  -0.666  1.00  0.00    +0.000 HD
ATOM    184  H   SER A  15      10.808  25.383  -4.503  1.00  0.00    +0.000 HD
ATOM    185  H   SER A  15      11.090  26.828  -2.904  1.00  0.00    +0.000 HD
ATOM    186  H   SER A  16      15.079  24.062  -3.718  1.00  0.00    +0.000 HD
ATOM    187  H   SER A  16      16.272  22.105  -1.259  1.00  0.00    +0.000 HD
ATOM    188  H   ASP A  17      15.507  25.576   0.633  1.00  0.00    +0.000 HD
ATOM    189  H   LYS A  18      18.612  33.067   2.169  1.00  0.00    +0.000 HD
ATOM    190  H   LYS A  18      20.706  26.391   4.949  1.00  0.00    +0.000 HD
ATOM    191  H   LEU A  19      16.853  30.761   0.464  1.00  0.00    +0.000 HD
ATOM    192  H   ARG A  20      15.419  31.057   3.266  1.00  0.00    +0.000 HD
ATOM    193  H   ARG A  20      10.817  25.469   6.939  1.00  0.00    +0.000 HD
ATOM    194  H   ARG A  20      12.072  26.598   6.699  1.00  0.00    +0.000 HD
ATOM    195  H   ARG A  20       8.245  27.746   6.387  1.00  0.00    +0.000 HD
ATOM    196  H   ARG A  20       8.625  26.127   6.758  1.00  0.00    +0.000 HD
ATOM    197  H   ARG A  21      15.888  33.375   5.247  1.00  0.00    +0.000 HD
ATOM    198  H   ARG A  21      14.518  33.075   9.473  1.00  0.00    +0.000 HD
ATOM    199  H   ARG A  21      17.488  29.559   3.881  1.00  0.00    +0.000 HD
ENDROOT
TORSDOF 0
