REMARK  Name = /var/folders/yp/yjbh3p597675h2qddgqr02y00000gn/T/tmp6ok9aqwr.pdb
REMARK     285 UNITARY VALUES FOR THE UNIT CELL AUTOMATICALLY SET
REMARK     285 BY MDANALYSIS PDBWRITER BECAUSE UNIT CELL INFORMATION
REMARK     285 WAS MISSING.
REMARK     285 PROTEIN DATA BANK CONVENTIONS REQUIRE THAT
REMARK     285 CRYST1 RECORD IS INCLUDED, BUT THE VALUES ON
REMARK     285 THIS RECORD ARE MEANINGLESS.
REMARK     285 UNITARY VALUES FOR THE UNIT CELL AUTOMATICALLY SET
REMARK     285 BY MDANALYSIS PDBWRITER BECAUSE UNIT CELL INFORMATION
REMARK     285 WAS MISSING.
REMARK     285 PROTEIN DATA BANK CONVENTIONS REQUIRE THAT
REMARK     285 CRYST1 RECORD IS INCLUDED, BUT THE VALUES ON
REMARK     285 THIS RECORD ARE MEANINGLESS.
REMARK                            x       y       z     vdW  Elec       q    Type
REMARK                         _______ _______ _______ _____ _____    ______ ____
ROOT
ATOM      1  N   ASP A   1      -6.710   6.129 -21.524  1.00  0.00    -0.122 NA
ATOM      2  CA  ASP A   1      -7.255   6.700 -22.754  1.00  0.00    +0.181 C 
ATOM      3  C   ASP A   1      -6.848   5.876 -23.964  1.00  0.00    +0.260 C 
ATOM      4  O   ASP A   1      -5.874   5.127 -23.912  1.00  0.00    -0.272 OA
ATOM      5  CB  ASP A   1      -6.791   8.136 -22.938  1.00  0.00    +0.142 C 
ATOM      6  CG  ASP A   1      -7.822   9.009 -23.635  1.00  0.00    +0.367 C 
ATOM      7  OD1 ASP A   1      -8.276   8.650 -24.743  1.00  0.00    -0.246 OA
ATOM      8  OD2 ASP A   1      -8.183  10.063 -23.069  1.00  0.00    -0.246 OA
ATOM      9  N   LYS A   2      -7.593   6.014 -25.057  1.00  0.00    -0.197 N 
ATOM     10  CA  LYS A   2      -7.762   4.918 -26.005  1.00  0.00    +0.173 C 
ATOM     11  C   LYS A   2      -6.461   4.617 -26.732  1.00  0.00    +0.262 C 
ATOM     12  O   LYS A   2      -5.730   5.533 -27.105  1.00  0.00    -0.271 OA
ATOM     13  CB  LYS A   2      -8.846   5.241 -27.020  1.00  0.00    +0.031 C 
ATOM     14  CG  LYS A   2     -10.235   4.784 -26.603  1.00  0.00    +0.009 C 
ATOM     15  CD  LYS A   2     -11.286   5.156 -27.636  1.00  0.00    +0.049 C 
ATOM     16  CE  LYS A   2     -12.338   5.988 -27.060  1.00  0.00    +0.096 C 
ATOM     17  NZ  LYS A   2     -13.383   6.462 -27.732  1.00  0.00    -0.151 NA
ATOM     18  N   LEU A   3      -6.172   3.336 -26.934  1.00  0.00    -0.196 N 
ATOM     19  CA  LEU A   3      -5.243   2.920 -27.980  1.00  0.00    +0.173 C 
ATOM     20  C   LEU A   3      -5.813   1.763 -28.782  1.00  0.00    +0.261 C 
ATOM     21  O   LEU A   3      -6.196   0.740 -28.216  1.00  0.00    -0.271 OA
ATOM     22  CB  LEU A   3      -3.905   2.515 -27.384  1.00  0.00    +0.034 C 
ATOM     23  CG  LEU A   3      -2.789   2.202 -28.382  1.00  0.00    +0.032 C 
ATOM     24  CD1 LEU A   3      -1.957   3.450 -28.652  1.00  0.00    +0.003 C 
ATOM     25  CD2 LEU A   3      -3.362   1.998 -29.781  1.00  0.00    +0.144 C 
ATOM     26  N   ALA A   4      -5.871   1.922 -30.101  1.00  0.00    -0.202 N 
ATOM     27  CA  ALA A   4      -5.357   0.904 -31.012  1.00  0.00    +0.139 C 
ATOM     28  C   ALA A   4      -3.841   0.969 -31.106  1.00  0.00    +0.209 C 
ATOM     29  O   ALA A   4      -3.254   2.046 -31.007  1.00  0.00    -0.338 OA
ATOM     30  CB  ALA A   4      -5.958   1.068 -32.400  1.00  0.00    +0.028 C 
ATOM     31  N   VAL A   5      -3.205  -0.183 -31.294  1.00  0.00    -0.192 NA
ATOM     32  CA  VAL A   5      -3.001  -0.729 -32.632  1.00  0.00    +0.077 C 
ATOM     33  C   VAL A   5      -3.646  -2.100 -32.733  1.00  0.00    +0.224 C 
ATOM     34  O   VAL A   5      -3.137  -3.073 -32.176  1.00  0.00    -0.287 OA
ATOM     35  CB  VAL A   5      -1.525  -0.835 -32.982  1.00  0.00    +0.004 C 
ATOM     36  CG1 VAL A   5      -1.309  -0.631 -34.480  1.00  0.00    +0.101 C 
ATOM     37  CG2 VAL A   5      -0.723   0.234 -32.241  1.00  0.00    +0.029 C 
ATOM     38  N   THR A   6      -4.765  -2.183 -33.445  1.00  0.00    -0.201 NA
ATOM     39  CA  THR A   6      -5.002  -3.292 -34.365  1.00  0.00    +0.181 C 
ATOM     40  C   THR A   6      -4.166  -3.135 -35.623  1.00  0.00    +0.260 C 
ATOM     41  O   THR A   6      -3.536  -4.089 -36.079  1.00  0.00    -0.272 OA
ATOM     42  CB  THR A   6      -6.472  -3.395 -34.739  1.00  0.00    +0.177 C 
ATOM     43  OG1 THR A   6      -7.269  -3.195 -33.570  1.00  0.00    -0.221 OA
ATOM     44  CG2 THR A   6      -6.795  -4.765 -35.336  1.00  0.00    +0.038 C 
ATOM     45  N   ALA A   7      -4.158  -1.930 -36.188  1.00  0.00    -0.197 N 
ATOM     46  CA  ALA A   7      -3.375  -1.657 -37.389  1.00  0.00    +0.173 C 
ATOM     47  C   ALA A   7      -1.888  -1.811 -37.118  1.00  0.00    +0.261 C 
ATOM     48  O   ALA A   7      -1.107  -2.045 -38.039  1.00  0.00    -0.271 OA
ATOM     49  CB  ALA A   7      -3.655  -0.258 -37.910  1.00  0.00    +0.033 C 
ATOM     50  N   LEU A   8      -1.495  -1.678 -35.855  1.00  0.00    -0.203 N 
ATOM     51  CA  LEU A   8      -1.883  -0.521 -35.054  1.00  0.00    +0.124 C 
ATOM     52  C   LEU A   8      -0.734   0.466 -34.936  1.00  0.00    +0.243 C 
ATOM     53  O   LEU A   8      -0.789   1.559 -35.497  1.00  0.00    -0.273 OA
ATOM     54  CB  LEU A   8      -2.328  -0.951 -33.666  1.00  0.00    +0.027 C 
ATOM     55  CG  LEU A   8      -3.780  -0.640 -33.298  1.00  0.00    +0.040 C 
ATOM     56  CD1 LEU A   8      -4.580  -1.930 -33.167  1.00  0.00    +0.139 C 
ATOM     57  CD2 LEU A   8      -4.516  -0.030 -34.486  1.00  0.00    +0.003 C 
ATOM     58  N   LEU A   9       0.310   0.081 -34.206  1.00  0.00    -0.200 N 
ATOM     59  CA  LEU A   9       0.784   0.877 -33.079  1.00  0.00    +0.148 C 
ATOM     60  C   LEU A   9       1.472   2.144 -33.562  1.00  0.00    +0.259 C 
ATOM     61  O   LEU A   9       1.978   2.193 -34.683  1.00  0.00    -0.272 OA
ATOM     62  CB  LEU A   9       1.746   0.074 -32.219  1.00  0.00    +0.029 C 
ATOM     63  CG  LEU A   9       1.125  -1.035 -31.369  1.00  0.00    +0.002 C 
ATOM     64  CD1 LEU A   9       1.091  -0.621 -29.902  1.00  0.00    +0.000 C 
ATOM     65  CD2 LEU A   9       2.077  -2.221 -31.253  1.00  0.00    +0.000 C 
ATOM     66  N   VAL A  10       1.495   3.170 -32.717  1.00  0.00    -0.196 N 
ATOM     67  CA  VAL A  10       2.497   4.226 -32.829  1.00  0.00    +0.173 C 
ATOM     68  C   VAL A  10       3.540   4.062 -31.736  1.00  0.00    +0.262 C 
ATOM     69  O   VAL A  10       4.654   3.612 -31.996  1.00  0.00    -0.271 OA
ATOM     70  CB  VAL A  10       1.876   5.610 -32.736  1.00  0.00    +0.029 C 
ATOM     71  CG1 VAL A  10       2.959   6.686 -32.690  1.00  0.00    +0.002 C 
ATOM     72  CG2 VAL A  10       0.994   5.881 -33.951  1.00  0.00    +0.002 C 
ATOM     73  N   VAL A  11       3.180   4.430 -30.509  1.00  0.00    -0.196 N 
ATOM     74  CA  VAL A  11       2.786   5.804 -30.210  1.00  0.00    +0.173 C 
ATOM     75  C   VAL A  11       4.013   6.617 -29.824  1.00  0.00    +0.262 C 
ATOM     76  O   VAL A  11       3.999   7.844 -29.906  1.00  0.00    -0.271 OA
ATOM     77  CB  VAL A  11       1.761   5.870 -29.090  1.00  0.00    +0.029 C 
ATOM     78  CG1 VAL A  11       0.624   6.821 -29.456  1.00  0.00    +0.002 C 
ATOM     79  CG2 VAL A  11       1.158   4.489 -28.839  1.00  0.00    +0.002 C 
ATOM     80  N   PHE A  12       5.072   5.932 -29.403  1.00  0.00    -0.196 N 
ATOM     81  CA  PHE A  12       5.902   6.418 -28.303  1.00  0.00    +0.177 C 
ATOM     82  C   PHE A  12       7.078   7.224 -28.829  1.00  0.00    +0.262 C 
ATOM     83  O   PHE A  12       7.785   7.870 -28.059  1.00  0.00    -0.271 OA
ATOM     84  CB  PHE A  12       6.415   5.261 -27.461  1.00  0.00    +0.057 C 
ATOM     85  CG  PHE A  12       7.870   4.955 -27.672  1.00  0.00    -0.020 A 
ATOM     86  CD1 PHE A  12       8.265   4.172 -28.749  1.00  0.00    -0.004 A 
ATOM     87  CE1 PHE A  12       9.612   3.889 -28.943  1.00  0.00    -0.000 A 
ATOM     88  CD2 PHE A  12       8.819   5.456 -26.789  1.00  0.00    -0.004 A 
ATOM     89  CE2 PHE A  12      10.166   5.173 -26.984  1.00  0.00    -0.000 A 
ATOM     90  CZ  PHE A  12      10.563   4.390 -28.061  1.00  0.00    -0.000 A 
ATOM     91  N   ALA A  13       7.287   7.186 -30.142  1.00  0.00    -0.196 N 
ATOM     92  CA  ALA A  13       6.527   8.034 -31.057  1.00  0.00    +0.173 C 
ATOM     93  C   ALA A  13       5.648   7.196 -31.973  1.00  0.00    +0.262 C 
ATOM     94  O   ALA A  13       5.968   6.045 -32.264  1.00  0.00    -0.271 OA
ATOM     95  CB  ALA A  13       7.457   8.894 -31.896  1.00  0.00    +0.033 C 
ATOM     96  N   GLU A  14       4.541   7.775 -32.429  1.00  0.00    -0.196 N 
ATOM     97  CA  GLU A  14       4.595   8.842 -33.424  1.00  0.00    +0.173 C 
ATOM     98  C   GLU A  14       5.193  10.110 -32.836  1.00  0.00    +0.262 C 
ATOM     99  O   GLU A  14       5.101  10.344 -31.633  1.00  0.00    -0.271 OA
ATOM    100  CB  GLU A  14       3.209   9.140 -33.973  1.00  0.00    +0.043 C 
ATOM    101  CG  GLU A  14       3.116  10.461 -34.720  1.00  0.00    +0.116 C 
ATOM    102  CD  GLU A  14       4.131  10.589 -35.844  1.00  0.00    +0.365 C 
ATOM    103  OE1 GLU A  14       4.545   9.553 -36.409  1.00  0.00    -0.246 OA
ATOM    104  OE2 GLU A  14       4.517  11.735 -36.163  1.00  0.00    -0.246 OA
ATOM    105  N   SER A  15       5.805  10.930 -33.688  1.00  0.00    -0.194 N 
ATOM    106  CA  SER A  15       7.226  10.789 -33.988  1.00  0.00    +0.205 C 
ATOM    107  C   SER A  15       8.085  11.359 -32.871  1.00  0.00    +0.264 C 
ATOM    108  O   SER A  15       7.691  12.315 -32.206  1.00  0.00    -0.271 OA
ATOM    109  CB  SER A  15       7.569  11.482 -35.296  1.00  0.00    +0.213 C 
ATOM    110  OG  SER A  15       7.604  12.888 -35.125  1.00  0.00    -0.218 OA
ATOM    111  N   SER A  16       9.261  10.772 -32.665  1.00  0.00    -0.194 N 
ATOM    112  CA  SER A  16      10.118  11.157 -31.549  1.00  0.00    +0.205 C 
ATOM    113  C   SER A  16      10.740  12.526 -31.778  1.00  0.00    +0.264 C 
ATOM    114  O   SER A  16      11.112  13.210 -30.826  1.00  0.00    -0.271 OA
ATOM    115  CB  SER A  16      11.217  10.131 -31.335  1.00  0.00    +0.213 C 
ATOM    116  OG  SER A  16      12.019  10.003 -32.497  1.00  0.00    -0.218 OA
ATOM    117  N   ASP A  17      10.852  12.926 -33.040  1.00  0.00    -0.196 N 
ATOM    118  CA  ASP A  17      12.043  13.622 -33.515  1.00  0.00    +0.184 C 
ATOM    119  C   ASP A  17      11.903  15.126 -33.338  1.00  0.00    +0.262 C 
ATOM    120  O   ASP A  17      12.786  15.887 -33.733  1.00  0.00    -0.271 OA
ATOM    121  CB  ASP A  17      12.313  13.307 -34.976  1.00  0.00    +0.145 C 
ATOM    122  CG  ASP A  17      11.091  13.495 -35.861  1.00  0.00    +0.367 C 
ATOM    123  OD1 ASP A  17      10.633  14.645 -36.033  1.00  0.00    -0.246 OA
ATOM    124  OD2 ASP A  17      10.582  12.483 -36.388  1.00  0.00    -0.246 OA
ATOM    125  N   LYS A  18      10.792  15.556 -32.746  1.00  0.00    -0.196 N 
ATOM    126  CA  LYS A  18      10.716  16.885 -32.146  1.00  0.00    +0.173 C 
ATOM    127  C   LYS A  18      10.262  16.805 -30.697  1.00  0.00    +0.262 C 
ATOM    128  O   LYS A  18       9.252  16.172 -30.395  1.00  0.00    -0.271 OA
ATOM    129  CB  LYS A  18       9.765  17.778 -32.927  1.00  0.00    +0.031 C 
ATOM    130  CG  LYS A  18      10.343  18.295 -34.234  1.00  0.00    +0.009 C 
ATOM    131  CD  LYS A  18       9.394  19.256 -34.930  1.00  0.00    +0.049 C 
ATOM    132  CE  LYS A  18       9.890  19.649 -36.245  1.00  0.00    +0.096 C 
ATOM    133  NZ  LYS A  18       9.547  20.762 -36.884  1.00  0.00    -0.151 NA
ATOM    134  N   LEU A  19      11.006  17.449 -29.802  1.00  0.00    -0.196 N 
ATOM    135  CA  LEU A  19      10.407  18.089 -28.635  1.00  0.00    +0.173 C 
ATOM    136  C   LEU A  19       9.991  19.516 -28.954  1.00  0.00    +0.262 C 
ATOM    137  O   LEU A  19      10.440  20.457 -28.302  1.00  0.00    -0.271 OA
ATOM    138  CB  LEU A  19      11.380  18.095 -27.466  1.00  0.00    +0.031 C 
ATOM    139  CG  LEU A  19      10.784  18.422 -26.096  1.00  0.00    +0.002 C 
ATOM    140  CD1 LEU A  19      11.467  17.598 -25.011  1.00  0.00    +0.000 C 
ATOM    141  CD2 LEU A  19       9.377  17.846 -25.972  1.00  0.00    +0.000 C 
ATOM    142  N   ARG A  20       9.134  19.677 -29.957  1.00  0.00    -0.196 N 
ATOM    143  CA  ARG A  20       8.153  20.757 -29.954  1.00  0.00    +0.173 C 
ATOM    144  C   ARG A  20       6.998  20.441 -29.018  1.00  0.00    +0.262 C 
ATOM    145  O   ARG A  20       7.209  19.963 -27.904  1.00  0.00    -0.271 OA
ATOM    146  CB  ARG A  20       7.619  21.012 -31.353  1.00  0.00    +0.033 C 
ATOM    147  CG  ARG A  20       6.763  22.262 -31.467  1.00  0.00    +0.029 C 
ATOM    148  CD  ARG A  20       6.837  22.872 -32.857  1.00  0.00    +0.129 C 
ATOM    149  NE  ARG A  20       8.162  23.413 -33.141  1.00  0.00    -0.234 NA
ATOM    150  CZ  ARG A  20       9.076  22.820 -33.905  1.00  0.00    +0.284 C 
ATOM    151  NH1 ARG A  20       8.947  21.541 -34.249  1.00  0.00    -0.104 N 
ATOM    152  NH2 ARG A  20      10.129  23.513 -34.327  1.00  0.00    -0.104 N 
ATOM    153  N   ARG A  21       5.776  20.708 -29.469  1.00  0.00    -0.194 N 
ATOM    154  CA  ARG A  21       4.920  21.693 -28.813  1.00  0.00    +0.198 C 
ATOM    155  C   ARG A  21       3.983  21.026 -27.822  1.00  0.00    +0.384 C 
ATOM    156  O   ARG A  21       3.113  20.248 -28.211  1.00  0.00    -0.244 OA
ATOM    157  CB  ARG A  21       4.109  22.472 -29.835  1.00  0.00    +0.035 C 
ATOM    158  CG  ARG A  21       3.365  23.662 -29.250  1.00  0.00    +0.029 C 
ATOM    159  CD  ARG A  21       1.877  23.384 -29.110  1.00  0.00    +0.129 C 
ATOM    160  NE  ARG A  21       1.385  23.737 -27.781  1.00  0.00    -0.234 NA
ATOM    161  CZ  ARG A  21       0.154  23.501 -27.340  1.00  0.00    +0.284 C 
ATOM    162  NH1 ARG A  21      -0.606  22.574 -27.917  1.00  0.00    -0.104 N 
ATOM    163  NH2 ARG A  21      -0.323  24.200 -26.314  1.00  0.00    -0.104 N 
ATOM    164  OXT ARG A  21       4.080  21.254 -26.617  1.00  0.00    -0.244 OA
ATOM    165  H   ASP A   1      -7.034   5.168 -21.422  1.00  0.00    +0.000 HD
ATOM    166  H   ASP A   1      -7.023   6.679 -20.726  1.00  0.00    +0.000 HD
ATOM    167  H   ASP A   1      -7.819  10.298 -22.238  1.00  0.00    +0.000 HD
ATOM    168  H   LYS A   2      -8.041   6.873 -25.229  1.00  0.00    +0.000 HD
ATOM    169  H   LYS A   2     -13.487   6.257 -28.689  1.00  0.00    +0.000 HD
ATOM    170  H   LEU A   3      -6.594   2.652 -26.365  1.00  0.00    +0.000 HD
ATOM    171  H   ALA A   4      -6.270   2.743 -30.471  1.00  0.00    +0.000 HD
ATOM    172  H   VAL A   5      -2.278  -0.070 -30.884  1.00  0.00    +0.000 HD
ATOM    173  H   THR A   6      -5.604  -2.341 -32.888  1.00  0.00    +0.000 HD
ATOM    174  H   THR A   6      -7.062  -3.881 -32.917  1.00  0.00    +0.000 HD
ATOM    175  H   ALA A   7      -4.692  -1.207 -35.788  1.00  0.00    +0.000 HD
ATOM    176  H   LEU A   8      -0.929  -2.376 -35.451  1.00  0.00    +0.000 HD
ATOM    177  H   LEU A   9       0.772  -0.759 -34.430  1.00  0.00    +0.000 HD
ATOM    178  H   VAL A  10       0.821   3.219 -32.001  1.00  0.00    +0.000 HD
ATOM    179  H   VAL A  11       3.179   3.760 -29.788  1.00  0.00    +0.000 HD
ATOM    180  H   PHE A  12       5.301   5.080 -29.841  1.00  0.00    +0.000 HD
ATOM    181  H   ALA A  13       7.967   6.575 -30.504  1.00  0.00    +0.000 HD
ATOM    182  H   GLU A  14       3.666   7.478 -32.089  1.00  0.00    +0.000 HD
ATOM    183  H   GLU A  14       4.180  12.485 -35.713  1.00  0.00    +0.000 HD
ATOM    184  H   SER A  15       5.288  11.645 -34.124  1.00  0.00    +0.000 HD
ATOM    185  H   SER A  15       6.733  13.200 -34.833  1.00  0.00    +0.000 HD
ATOM    186  H   SER A  16       9.559  10.062 -33.278  1.00  0.00    +0.000 HD
ATOM    187  H   SER A  16      12.433  10.856 -32.699  1.00  0.00    +0.000 HD
ATOM    188  H   ASP A  17      10.115  12.748 -33.669  1.00  0.00    +0.000 HD
ATOM    189  H   ASP A  17      11.043  15.379 -35.620  1.00  0.00    +0.000 HD
ATOM    190  H   LYS A  18      10.005  14.966 -32.712  1.00  0.00    +0.000 HD
ATOM    191  H   LYS A  18       8.914  21.392 -36.470  1.00  0.00    +0.000 HD
ATOM    192  H   LEU A  19      11.982  17.494 -29.930  1.00  0.00    +0.000 HD
ATOM    193  H   ARG A  20       9.161  19.053 -30.719  1.00  0.00    +0.000 HD
ATOM    194  H   ARG A  20       8.168  21.024 -33.938  1.00  0.00    +0.000 HD
ATOM    195  H   ARG A  20       9.629  21.112 -34.814  1.00  0.00    +0.000 HD
ATOM    196  H   ARG A  20      10.809  23.080 -34.893  1.00  0.00    +0.000 HD
ATOM    197  H   ARG A  20      10.229  24.460 -34.074  1.00  0.00    +0.000 HD
ATOM    198  H   ARG A  21       5.440  20.230 -30.262  1.00  0.00    +0.000 HD
ATOM    199  H   ARG A  21      -1.518  22.407 -27.583  1.00  0.00    +0.000 HD
ATOM    200  H   ARG A  21      -0.258  22.055 -28.678  1.00  0.00    +0.000 HD
ATOM    201  H   ARG A  21      -1.235  24.029 -25.984  1.00  0.00    +0.000 HD
ATOM    202  H   ARG A  21       0.236  24.887 -25.885  1.00  0.00    +0.000 HD
ATOM    203  H   ARG A  21       4.737  21.843 -26.304  1.00  0.00    +0.000 HD
ENDROOT
TORSDOF 0
