REMARK  Name = /var/folders/yp/yjbh3p597675h2qddgqr02y00000gn/T/tmpq4jaltlu.pdb
REMARK   1 CREATED WITH OPENMM 8.6.1, 2026-10-07
REMARK                            x       y       z     vdW  Elec       q    Type
REMARK                         _______ _______ _______ _____ _____    ______ ____
ROOT
ATOM      1  N   ASP A   1      -6.385 -27.485   7.615  1.00  0.00    -0.122 NA
ATOM      2  CA  ASP A   1      -6.255 -26.566   8.768  1.00  0.00    +0.181 C 
ATOM      3  C   ASP A   1      -4.796 -26.235   9.036  1.00  0.00    +0.260 C 
ATOM      4  O   ASP A   1      -3.893 -26.938   8.577  1.00  0.00    -0.272 OA
ATOM      5  CB  ASP A   1      -6.899 -27.140  10.039  1.00  0.00    +0.142 C 
ATOM      6  CG  ASP A   1      -8.308 -26.596  10.253  1.00  0.00    +0.367 C 
ATOM      7  OD1 ASP A   1      -9.221 -26.940   9.468  1.00  0.00    -0.246 OA
ATOM      8  OD2 ASP A   1      -8.503 -25.805  11.204  1.00  0.00    -0.246 OA
ATOM      9  N   LYS A   2      -4.561 -25.146   9.768  1.00  0.00    -0.197 N 
ATOM     10  CA  LYS A   2      -3.226 -24.587   9.952  1.00  0.00    +0.173 C 
ATOM     11  C   LYS A   2      -2.675 -24.848  11.342  1.00  0.00    +0.262 C 
ATOM     12  O   LYS A   2      -3.376 -24.717  12.346  1.00  0.00    -0.271 OA
ATOM     13  CB  LYS A   2      -3.242 -23.083   9.665  1.00  0.00    +0.031 C 
ATOM     14  CG  LYS A   2      -3.600 -22.769   8.211  1.00  0.00    +0.004 C 
ATOM     15  CD  LYS A   2      -3.113 -21.368   7.809  1.00  0.00    +0.021 C 
ATOM     16  CE  LYS A   2      -4.312 -20.549   7.356  1.00  0.00    +0.109 C 
ATOM     17  NZ  LYS A   2      -3.973 -19.177   6.960  1.00  0.00    -0.131 NA
ATOM     18  N   LEU A   3      -1.379 -25.108  11.374  1.00  0.00    -0.196 N 
ATOM     19  CA  LEU A   3      -0.465 -24.467  12.307  1.00  0.00    +0.173 C 
ATOM     20  C   LEU A   3      -0.107 -23.069  11.776  1.00  0.00    +0.262 C 
ATOM     21  O   LEU A   3       0.030 -22.870  10.567  1.00  0.00    -0.271 OA
ATOM     22  CB  LEU A   3       0.777 -25.374  12.382  1.00  0.00    +0.031 C 
ATOM     23  CG  LEU A   3       0.714 -26.459  13.462  1.00  0.00    +0.002 C 
ATOM     24  CD1 LEU A   3       2.060 -27.165  13.577  1.00  0.00    +0.000 C 
ATOM     25  CD2 LEU A   3      -0.261 -27.546  13.014  1.00  0.00    +0.000 C 
ATOM     26  N   ALA A   4       0.128 -22.134  12.693  1.00  0.00    -0.196 N 
ATOM     27  CA  ALA A   4       1.446 -21.511  12.762  1.00  0.00    +0.173 C 
ATOM     28  C   ALA A   4       2.486 -22.541  13.224  1.00  0.00    +0.262 C 
ATOM     29  O   ALA A   4       2.180 -23.425  14.023  1.00  0.00    -0.271 OA
ATOM     30  CB  ALA A   4       1.410 -20.354  13.767  1.00  0.00    +0.033 C 
ATOM     31  N   VAL A   5       3.735 -22.386  12.800  1.00  0.00    -0.196 N 
ATOM     32  CA  VAL A   5       4.878 -22.997  13.494  1.00  0.00    +0.173 C 
ATOM     33  C   VAL A   5       5.071 -22.304  14.841  1.00  0.00    +0.262 C 
ATOM     34  O   VAL A   5       5.695 -21.248  14.948  1.00  0.00    -0.271 OA
ATOM     35  CB  VAL A   5       6.154 -22.911  12.650  1.00  0.00    +0.029 C 
ATOM     36  CG1 VAL A   5       6.096 -23.939  11.519  1.00  0.00    +0.002 C 
ATOM     37  CG2 VAL A   5       6.378 -21.529  12.016  1.00  0.00    +0.002 C 
ATOM     38  N   THR A   6       4.437 -22.854  15.870  1.00  0.00    -0.194 N 
ATOM     39  CA  THR A   6       4.061 -22.086  17.063  1.00  0.00    +0.203 C 
ATOM     40  C   THR A   6       5.240 -21.760  17.972  1.00  0.00    +0.264 C 
ATOM     41  O   THR A   6       5.198 -20.765  18.695  1.00  0.00    -0.271 OA
ATOM     42  CB  THR A   6       2.959 -22.806  17.847  1.00  0.00    +0.181 C 
ATOM     43  OG1 THR A   6       3.203 -24.196  17.919  1.00  0.00    -0.221 OA
ATOM     44  CG2 THR A   6       1.588 -22.626  17.202  1.00  0.00    +0.038 C 
ATOM     45  N   ALA A   7       6.327 -22.527  17.951  1.00  0.00    -0.196 N 
ATOM     46  CA  ALA A   7       6.246 -23.878  18.483  1.00  0.00    +0.173 C 
ATOM     47  C   ALA A   7       6.056 -23.817  20.008  1.00  0.00    +0.262 C 
ATOM     48  O   ALA A   7       6.663 -22.977  20.674  1.00  0.00    -0.271 OA
ATOM     49  CB  ALA A   7       7.506 -24.643  18.117  1.00  0.00    +0.033 C 
ATOM     50  N   LEU A   8       5.298 -24.759  20.571  1.00  0.00    -0.196 N 
ATOM     51  CA  LEU A   8       5.551 -25.249  21.937  1.00  0.00    +0.173 C 
ATOM     52  C   LEU A   8       6.623 -26.332  21.960  1.00  0.00    +0.262 C 
ATOM     53  O   LEU A   8       6.865 -26.941  23.002  1.00  0.00    -0.271 OA
ATOM     54  CB  LEU A   8       4.235 -25.760  22.558  1.00  0.00    +0.031 C 
ATOM     55  CG  LEU A   8       3.534 -24.777  23.512  1.00  0.00    +0.002 C 
ATOM     56  CD1 LEU A   8       2.034 -24.784  23.235  1.00  0.00    +0.000 C 
ATOM     57  CD2 LEU A   8       3.938 -23.313  23.343  1.00  0.00    +0.000 C 
ATOM     58  N   LEU A   9       7.248 -26.600  20.812  1.00  0.00    -0.196 N 
ATOM     59  CA  LEU A   9       8.142 -27.734  20.651  1.00  0.00    +0.173 C 
ATOM     60  C   LEU A   9       9.316 -27.628  21.599  1.00  0.00    +0.262 C 
ATOM     61  O   LEU A   9      10.016 -26.614  21.638  1.00  0.00    -0.271 OA
ATOM     62  CB  LEU A   9       8.647 -27.877  19.204  1.00  0.00    +0.031 C 
ATOM     63  CG  LEU A   9       7.768 -28.729  18.267  1.00  0.00    +0.002 C 
ATOM     64  CD1 LEU A   9       7.633 -28.104  16.882  1.00  0.00    +0.000 C 
ATOM     65  CD2 LEU A   9       6.326 -28.932  18.732  1.00  0.00    +0.000 C 
ATOM     66  N   VAL A  10       9.555 -28.719  22.319  1.00  0.00    -0.196 N 
ATOM     67  CA  VAL A  10      10.800 -28.897  23.051  1.00  0.00    +0.173 C 
ATOM     68  C   VAL A  10      11.941 -28.958  22.049  1.00  0.00    +0.262 C 
ATOM     69  O   VAL A  10      12.034 -29.890  21.244  1.00  0.00    -0.271 OA
ATOM     70  CB  VAL A  10      10.783 -30.168  23.910  1.00  0.00    +0.029 C 
ATOM     71  CG1 VAL A  10      12.059 -30.255  24.754  1.00  0.00    +0.002 C 
ATOM     72  CG2 VAL A  10       9.581 -30.174  24.857  1.00  0.00    +0.002 C 
ATOM     73  N   VAL A  11      12.830 -27.974  22.114  1.00  0.00    -0.196 N 
ATOM     74  CA  VAL A  11      14.138 -28.073  21.474  1.00  0.00    +0.173 C 
ATOM     75  C   VAL A  11      14.952 -29.135  22.207  1.00  0.00    +0.262 C 
ATOM     76  O   VAL A  11      15.170 -29.032  23.417  1.00  0.00    -0.271 OA
ATOM     77  CB  VAL A  11      14.890 -26.732  21.485  1.00  0.00    +0.029 C 
ATOM     78  CG1 VAL A  11      16.000 -26.744  20.430  1.00  0.00    +0.002 C 
ATOM     79  CG2 VAL A  11      13.959 -25.551  21.186  1.00  0.00    +0.002 C 
ATOM     80  N   PHE A  12      15.417 -30.147  21.482  1.00  0.00    -0.196 N 
ATOM     81  CA  PHE A  12      16.546 -30.962  21.924  1.00  0.00    +0.177 C 
ATOM     82  C   PHE A  12      17.849 -30.226  21.606  1.00  0.00    +0.262 C 
ATOM     83  O   PHE A  12      18.151 -29.948  20.442  1.00  0.00    -0.271 OA
ATOM     84  CB  PHE A  12      16.513 -32.333  21.252  1.00  0.00    +0.057 C 
ATOM     85  CG  PHE A  12      17.882 -32.965  21.125  1.00  0.00    -0.020 A 
ATOM     86  CD1 PHE A  12      18.350 -33.350  19.858  1.00  0.00    -0.004 A 
ATOM     87  CE1 PHE A  12      19.631 -33.905  19.723  1.00  0.00    -0.000 A 
ATOM     88  CD2 PHE A  12      18.707 -33.117  22.255  1.00  0.00    -0.004 A 
ATOM     89  CE2 PHE A  12      19.995 -33.657  22.115  1.00  0.00    -0.000 A 
ATOM     90  CZ  PHE A  12      20.452 -34.059  20.850  1.00  0.00    -0.000 A 
ATOM     91  N   ALA A  13      18.602 -29.894  22.646  1.00  0.00    -0.196 N 
ATOM     92  CA  ALA A  13      19.598 -28.842  22.568  1.00  0.00    +0.173 C 
ATOM     93  C   ALA A  13      21.031 -29.382  22.604  1.00  0.00    +0.262 C 
ATOM     94  O   ALA A  13      21.306 -30.436  23.183  1.00  0.00    -0.271 OA
ATOM     95  CB  ALA A  13      19.291 -27.855  23.699  1.00  0.00    +0.033 C 
ATOM     96  N   GLU A  14      21.959 -28.604  22.045  1.00  0.00    -0.196 N 
ATOM     97  CA  GLU A  14      23.218 -28.313  22.743  1.00  0.00    +0.173 C 
ATOM     98  C   GLU A  14      22.962 -27.369  23.929  1.00  0.00    +0.262 C 
ATOM     99  O   GLU A  14      21.883 -26.801  24.076  1.00  0.00    -0.271 OA
ATOM    100  CB  GLU A  14      24.222 -27.691  21.767  1.00  0.00    +0.043 C 
ATOM    101  CG  GLU A  14      25.601 -27.408  22.397  1.00  0.00    +0.116 C 
ATOM    102  CD  GLU A  14      26.574 -26.728  21.454  1.00  0.00    +0.365 C 
ATOM    103  OE1 GLU A  14      27.724 -26.462  21.880  1.00  0.00    -0.246 OA
ATOM    104  OE2 GLU A  14      26.202 -26.407  20.304  1.00  0.00    -0.246 OA
ATOM    105  N   SER A  15      23.945 -27.215  24.811  1.00  0.00    -0.194 N 
ATOM    106  CA  SER A  15      23.777 -26.652  26.139  1.00  0.00    +0.205 C 
ATOM    107  C   SER A  15      23.219 -25.234  26.131  1.00  0.00    +0.264 C 
ATOM    108  O   SER A  15      23.466 -24.442  25.214  1.00  0.00    -0.271 OA
ATOM    109  CB  SER A  15      25.084 -26.713  26.925  1.00  0.00    +0.213 C 
ATOM    110  OG  SER A  15      25.906 -25.597  26.639  1.00  0.00    -0.218 OA
ATOM    111  N   SER A  16      22.422 -24.944  27.156  1.00  0.00    -0.194 N 
ATOM    112  CA  SER A  16      21.400 -23.907  27.078  1.00  0.00    +0.205 C 
ATOM    113  C   SER A  16      21.986 -22.538  26.746  1.00  0.00    +0.264 C 
ATOM    114  O   SER A  16      22.868 -22.040  27.452  1.00  0.00    -0.271 OA
ATOM    115  CB  SER A  16      20.597 -23.868  28.386  1.00  0.00    +0.213 C 
ATOM    116  OG  SER A  16      20.417 -22.550  28.871  1.00  0.00    -0.218 OA
ATOM    117  N   ASP A  17      21.415 -21.898  25.732  1.00  0.00    -0.196 N 
ATOM    118  CA  ASP A  17      21.175 -20.459  25.783  1.00  0.00    +0.184 C 
ATOM    119  C   ASP A  17      19.797 -20.189  26.386  1.00  0.00    +0.262 C 
ATOM    120  O   ASP A  17      18.865 -20.983  26.217  1.00  0.00    -0.271 OA
ATOM    121  CB  ASP A  17      21.251 -19.848  24.381  1.00  0.00    +0.145 C 
ATOM    122  CG  ASP A  17      22.617 -20.041  23.726  1.00  0.00    +0.367 C 
ATOM    123  OD1 ASP A  17      23.654 -19.968  24.426  1.00  0.00    -0.246 OA
ATOM    124  OD2 ASP A  17      22.663 -20.234  22.491  1.00  0.00    -0.246 OA
ATOM    125  N   LYS A  18      19.646 -19.028  27.019  1.00  0.00    -0.196 N 
ATOM    126  CA  LYS A  18      18.336 -18.429  27.287  1.00  0.00    +0.173 C 
ATOM    127  C   LYS A  18      18.370 -16.949  26.953  1.00  0.00    +0.262 C 
ATOM    128  O   LYS A  18      19.389 -16.286  27.149  1.00  0.00    -0.271 OA
ATOM    129  CB  LYS A  18      17.908 -18.630  28.748  1.00  0.00    +0.031 C 
ATOM    130  CG  LYS A  18      17.670 -20.097  29.089  1.00  0.00    +0.004 C 
ATOM    131  CD  LYS A  18      17.245 -20.274  30.551  1.00  0.00    +0.021 C 
ATOM    132  CE  LYS A  18      17.604 -21.711  30.915  1.00  0.00    +0.109 C 
ATOM    133  NZ  LYS A  18      16.731 -22.337  31.914  1.00  0.00    -0.131 NA
ATOM    134  N   LEU A  19      17.237 -16.421  26.501  1.00  0.00    -0.196 N 
ATOM    135  CA  LEU A  19      17.027 -14.971  26.369  1.00  0.00    +0.173 C 
ATOM    136  C   LEU A  19      16.277 -14.393  27.564  1.00  0.00    +0.262 C 
ATOM    137  O   LEU A  19      15.940 -13.208  27.581  1.00  0.00    -0.271 OA
ATOM    138  CB  LEU A  19      16.284 -14.688  25.051  1.00  0.00    +0.031 C 
ATOM    139  CG  LEU A  19      17.219 -14.385  23.872  1.00  0.00    +0.002 C 
ATOM    140  CD1 LEU A  19      18.409 -15.338  23.789  1.00  0.00    +0.000 C 
ATOM    141  CD2 LEU A  19      17.824 -12.989  23.979  1.00  0.00    +0.000 C 
ATOM    142  N   ARG A  20      15.957 -15.243  28.538  1.00  0.00    -0.196 N 
ATOM    143  CA  ARG A  20      14.820 -15.009  29.419  1.00  0.00    +0.173 C 
ATOM    144  C   ARG A  20      15.100 -13.929  30.454  1.00  0.00    +0.262 C 
ATOM    145  O   ARG A  20      14.242 -13.082  30.704  1.00  0.00    -0.271 OA
ATOM    146  CB  ARG A  20      14.411 -16.358  30.026  1.00  0.00    +0.033 C 
ATOM    147  CG  ARG A  20      13.011 -16.372  30.632  1.00  0.00    +0.029 C 
ATOM    148  CD  ARG A  20      12.575 -17.808  30.942  1.00  0.00    +0.129 C 
ATOM    149  NE  ARG A  20      12.041 -18.505  29.756  1.00  0.00    -0.234 NA
ATOM    150  CZ  ARG A  20      11.778 -19.796  29.673  1.00  0.00    +0.284 C 
ATOM    151  NH1 ARG A  20      12.016 -20.612  30.663  1.00  0.00    -0.104 N 
ATOM    152  NH2 ARG A  20      11.265 -20.294  28.584  1.00  0.00    -0.104 N 
ATOM    153  N   ARG A  21      16.278 -14.008  31.072  1.00  0.00    -0.194 N 
ATOM    154  CA  ARG A  21      16.406 -13.910  32.532  1.00  0.00    +0.198 C 
ATOM    155  C   ARG A  21      16.971 -12.580  32.998  1.00  0.00    +0.384 C 
ATOM    156  O   ARG A  21      16.220 -11.793  33.606  1.00  0.00    -0.244 OA
ATOM    157  CB  ARG A  21      17.266 -15.068  33.067  1.00  0.00    +0.035 C 
ATOM    158  CG  ARG A  21      16.579 -16.433  33.021  1.00  0.00    +0.029 C 
ATOM    159  CD  ARG A  21      17.350 -17.461  33.835  1.00  0.00    +0.129 C 
ATOM    160  NE  ARG A  21      16.608 -18.725  33.960  1.00  0.00    -0.234 NA
ATOM    161  CZ  ARG A  21      17.070 -19.804  34.556  1.00  0.00    +0.284 C 
ATOM    162  NH1 ARG A  21      16.468 -20.945  34.398  1.00  0.00    -0.104 N 
ATOM    163  NH2 ARG A  21      18.126 -19.778  35.314  1.00  0.00    -0.104 N 
ATOM    164  OXT ARG A  21      18.175 -12.326  32.790  1.00  0.00    -0.244 OA
ATOM    165  H   ASP A   1      -5.946 -27.066   6.795  1.00  0.00    +0.000 HD
ATOM    166  H   ASP A   1      -7.372 -27.652   7.423  1.00  0.00    +0.000 HD
ATOM    167  H   ASP A   1      -9.037 -27.534   8.767  1.00  0.00    +0.000 HD
ATOM    168  H   LYS A   2      -5.323 -24.699  10.205  1.00  0.00    +0.000 HD
ATOM    169  H   LYS A   2      -3.339 -19.200   6.161  1.00  0.00    +0.000 HD
ATOM    170  H   LYS A   2      -3.522 -18.699   7.740  1.00  0.00    +0.000 HD
ATOM    171  H   LEU A   3      -1.016 -25.766  10.737  1.00  0.00    +0.000 HD
ATOM    172  H   ALA A   4      -0.582 -21.864  13.320  1.00  0.00    +0.000 HD
ATOM    173  H   VAL A   5       3.901 -21.844  11.995  1.00  0.00    +0.000 HD
ATOM    174  H   THR A   6       4.212 -23.812  15.831  1.00  0.00    +0.000 HD
ATOM    175  H   THR A   6       3.192 -24.572  17.025  1.00  0.00    +0.000 HD
ATOM    176  H   ALA A   7       7.173 -22.185  17.581  1.00  0.00    +0.000 HD
ATOM    177  H   LEU A   8       4.548 -25.139  20.058  1.00  0.00    +0.000 HD
ATOM    178  H   LEU A   9       7.098 -26.004  20.043  1.00  0.00    +0.000 HD
ATOM    179  H   VAL A  10       8.870 -29.426  22.358  1.00  0.00    +0.000 HD
ATOM    180  H   VAL A  11      12.600 -27.154  22.607  1.00  0.00    +0.000 HD
ATOM    181  H   PHE A  12      14.987 -30.354  20.620  1.00  0.00    +0.000 HD
ATOM    182  H   ALA A  13      18.481 -30.375  23.496  1.00  0.00    +0.000 HD
ATOM    183  H   GLU A  14      21.798 -28.220  21.153  1.00  0.00    +0.000 HD
ATOM    184  H   GLU A  14      25.335 -26.620  20.016  1.00  0.00    +0.000 HD
ATOM    185  H   SER A  15      24.848 -27.503  24.545  1.00  0.00    +0.000 HD
ATOM    186  H   SER A  15      25.444 -24.783  26.890  1.00  0.00    +0.000 HD
ATOM    187  H   SER A  16      22.527 -25.446  27.996  1.00  0.00    +0.000 HD
ATOM    188  H   SER A  16      19.919 -22.031  28.221  1.00  0.00    +0.000 HD
ATOM    189  H   ASP A  17      21.149 -22.404  24.930  1.00  0.00    +0.000 HD
ATOM    190  H   ASP A  17      21.870 -20.285  21.994  1.00  0.00    +0.000 HD
ATOM    191  H   LYS A  18      20.452 -18.549  27.321  1.00  0.00    +0.000 HD
ATOM    192  H   LYS A  18      16.803 -21.828  32.795  1.00  0.00    +0.000 HD
ATOM    193  H   LYS A  18      17.017 -23.305  32.057  1.00  0.00    +0.000 HD
ATOM    194  H   LEU A  19      16.506 -17.028  26.244  1.00  0.00    +0.000 HD
ATOM    195  H   ARG A  20      16.504 -16.052  28.667  1.00  0.00    +0.000 HD
ATOM    196  H   ARG A  20      12.403 -20.270  31.502  1.00  0.00    +0.000 HD
ATOM    197  H   ARG A  20      11.809 -21.570  30.572  1.00  0.00    +0.000 HD
ATOM    198  H   ARG A  20      11.073 -19.707  27.817  1.00  0.00    +0.000 HD
ATOM    199  H   ARG A  20      11.071 -21.258  28.527  1.00  0.00    +0.000 HD
ATOM    200  H   ARG A  21      17.090 -14.136  30.531  1.00  0.00    +0.000 HD
ATOM    201  H   ARG A  21      15.665 -21.004  33.832  1.00  0.00    +0.000 HD
ATOM    202  H   ARG A  21      16.815 -21.750  34.846  1.00  0.00    +0.000 HD
ATOM    203  H   ARG A  21      18.608 -18.931  35.456  1.00  0.00    +0.000 HD
ATOM    204  H   ARG A  21      18.443 -20.604  35.746  1.00  0.00    +0.000 HD
ATOM    205  H   ARG A  21      18.711 -12.942  32.329  1.00  0.00    +0.000 HD
ENDROOT
TORSDOF 0
