REMARK  Name = /var/folders/yp/yjbh3p597675h2qddgqr02y00000gn/T/tmpvp0_akle.pdb
REMARK   1 CREATED WITH OPENMM 8.6.1, 2026-10-07
REMARK                            x       y       z     vdW  Elec       q    Type
REMARK                         _______ _______ _______ _____ _____    ______ ____
ROOT
ATOM      1  N   ASP A   1       2.319  10.204 -27.445  1.00  0.00    -0.122 NA
ATOM      2  CA  ASP A   1       2.632  11.215 -26.413  1.00  0.00    +0.181 C 
ATOM      3  C   ASP A   1       3.868  12.008 -26.813  1.00  0.00    +0.260 C 
ATOM      4  O   ASP A   1       4.750  11.495 -27.504  1.00  0.00    -0.272 OA
ATOM      5  CB  ASP A   1       2.819  10.561 -25.039  1.00  0.00    +0.142 C 
ATOM      6  CG  ASP A   1       2.555  11.530 -23.882  1.00  0.00    +0.367 C 
ATOM      7  OD1 ASP A   1       3.118  12.645 -23.860  1.00  0.00    -0.246 OA
ATOM      8  OD2 ASP A   1       1.756  11.180 -22.986  1.00  0.00    -0.246 OA
ATOM      9  N   LYS A   2       3.933  13.273 -26.412  1.00  0.00    -0.197 N 
ATOM     10  CA  LYS A   2       4.908  14.241 -26.907  1.00  0.00    +0.173 C 
ATOM     11  C   LYS A   2       5.884  14.671 -25.812  1.00  0.00    +0.262 C 
ATOM     12  O   LYS A   2       5.502  14.823 -24.653  1.00  0.00    -0.271 OA
ATOM     13  CB  LYS A   2       4.145  15.447 -27.449  1.00  0.00    +0.031 C 
ATOM     14  CG  LYS A   2       3.478  15.200 -28.819  1.00  0.00    +0.004 C 
ATOM     15  CD  LYS A   2       4.350  15.343 -30.069  1.00  0.00    +0.021 C 
ATOM     16  CE  LYS A   2       5.264  16.576 -29.879  1.00  0.00    +0.109 C 
ATOM     17  NZ  LYS A   2       6.130  16.936 -31.012  1.00  0.00    -0.131 NA
ATOM     18  N   LEU A   3       7.142  14.917 -26.161  1.00  0.00    -0.196 N 
ATOM     19  CA  LEU A   3       7.929  13.963 -26.949  1.00  0.00    +0.173 C 
ATOM     20  C   LEU A   3       9.001  13.361 -26.049  1.00  0.00    +0.262 C 
ATOM     21  O   LEU A   3       9.626  14.073 -25.257  1.00  0.00    -0.271 OA
ATOM     22  CB  LEU A   3       8.606  14.637 -28.160  1.00  0.00    +0.031 C 
ATOM     23  CG  LEU A   3       8.445  13.850 -29.480  1.00  0.00    +0.002 C 
ATOM     24  CD1 LEU A   3       9.682  13.907 -30.355  1.00  0.00    +0.000 C 
ATOM     25  CD2 LEU A   3       7.434  14.523 -30.332  1.00  0.00    +0.000 C 
ATOM     26  N   ALA A   4       9.253  12.068 -26.214  1.00  0.00    -0.196 N 
ATOM     27  CA  ALA A   4      10.450  11.455 -25.669  1.00  0.00    +0.173 C 
ATOM     28  C   ALA A   4      11.693  11.973 -26.402  1.00  0.00    +0.262 C 
ATOM     29  O   ALA A   4      11.728  12.047 -27.634  1.00  0.00    -0.271 OA
ATOM     30  CB  ALA A   4      10.337   9.931 -25.777  1.00  0.00    +0.033 C 
ATOM     31  N   VAL A   5      12.739  12.235 -25.624  1.00  0.00    -0.196 N 
ATOM     32  CA  VAL A   5      13.998  11.523 -25.827  1.00  0.00    +0.173 C 
ATOM     33  C   VAL A   5      13.833  10.092 -25.314  1.00  0.00    +0.262 C 
ATOM     34  O   VAL A   5      13.444   9.878 -24.164  1.00  0.00    -0.271 OA
ATOM     35  CB  VAL A   5      15.148  12.218 -25.074  1.00  0.00    +0.029 C 
ATOM     36  CG1 VAL A   5      16.460  11.442 -25.181  1.00  0.00    +0.002 C 
ATOM     37  CG2 VAL A   5      15.392  13.621 -25.625  1.00  0.00    +0.002 C 
ATOM     38  N   THR A   6      14.186   9.121 -26.153  1.00  0.00    -0.194 N 
ATOM     39  CA  THR A   6      14.857   7.899 -25.696  1.00  0.00    +0.203 C 
ATOM     40  C   THR A   6      16.249   7.822 -26.319  1.00  0.00    +0.264 C 
ATOM     41  O   THR A   6      16.480   7.135 -27.312  1.00  0.00    -0.271 OA
ATOM     42  CB  THR A   6      14.054   6.629 -25.991  1.00  0.00    +0.181 C 
ATOM     43  OG1 THR A   6      12.848   6.665 -25.258  1.00  0.00    -0.221 OA
ATOM     44  CG2 THR A   6      14.804   5.361 -25.560  1.00  0.00    +0.038 C 
ATOM     45  N   ALA A   7      17.188   8.539 -25.712  1.00  0.00    -0.196 N 
ATOM     46  CA  ALA A   7      18.360   7.899 -25.148  1.00  0.00    +0.173 C 
ATOM     47  C   ALA A   7      17.961   7.168 -23.859  1.00  0.00    +0.262 C 
ATOM     48  O   ALA A   7      17.225   7.709 -23.026  1.00  0.00    -0.271 OA
ATOM     49  CB  ALA A   7      19.426   8.960 -24.837  1.00  0.00    +0.033 C 
ATOM     50  N   LEU A   8      18.503   5.967 -23.682  1.00  0.00    -0.196 N 
ATOM     51  CA  LEU A   8      19.137   5.618 -22.417  1.00  0.00    +0.173 C 
ATOM     52  C   LEU A   8      20.601   6.075 -22.450  1.00  0.00    +0.262 C 
ATOM     53  O   LEU A   8      21.316   5.825 -23.425  1.00  0.00    -0.271 OA
ATOM     54  CB  LEU A   8      19.090   4.098 -22.177  1.00  0.00    +0.031 C 
ATOM     55  CG  LEU A   8      17.754   3.554 -21.644  1.00  0.00    +0.002 C 
ATOM     56  CD1 LEU A   8      18.009   2.428 -20.643  1.00  0.00    +0.000 C 
ATOM     57  CD2 LEU A   8      16.936   2.904 -22.754  1.00  0.00    +0.000 C 
ATOM     58  N   LEU A   9      21.058   6.663 -21.345  1.00  0.00    -0.196 N 
ATOM     59  CA  LEU A   9      22.361   6.300 -20.795  1.00  0.00    +0.173 C 
ATOM     60  C   LEU A   9      22.249   4.934 -20.106  1.00  0.00    +0.262 C 
ATOM     61  O   LEU A   9      21.266   4.656 -19.414  1.00  0.00    -0.271 OA
ATOM     62  CB  LEU A   9      22.844   7.340 -19.761  1.00  0.00    +0.031 C 
ATOM     63  CG  LEU A   9      23.723   8.471 -20.323  1.00  0.00    +0.002 C 
ATOM     64  CD1 LEU A   9      24.535   9.137 -19.220  1.00  0.00    +0.000 C 
ATOM     65  CD2 LEU A   9      22.897   9.602 -20.913  1.00  0.00    +0.000 C 
ATOM     66  N   VAL A  10      23.320   4.150 -20.212  1.00  0.00    -0.196 N 
ATOM     67  CA  VAL A  10      24.084   3.759 -19.025  1.00  0.00    +0.173 C 
ATOM     68  C   VAL A  10      25.558   4.067 -19.301  1.00  0.00    +0.262 C 
ATOM     69  O   VAL A  10      26.130   3.574 -20.271  1.00  0.00    -0.271 OA
ATOM     70  CB  VAL A  10      23.904   2.289 -18.630  1.00  0.00    +0.029 C 
ATOM     71  CG1 VAL A  10      24.643   1.929 -17.334  1.00  0.00    +0.002 C 
ATOM     72  CG2 VAL A  10      22.431   1.957 -18.399  1.00  0.00    +0.002 C 
ATOM     73  N   VAL A  11      26.201   4.881 -18.476  1.00  0.00    -0.196 N 
ATOM     74  CA  VAL A  11      25.874   5.023 -17.053  1.00  0.00    +0.173 C 
ATOM     75  C   VAL A  11      25.197   6.343 -16.739  1.00  0.00    +0.262 C 
ATOM     76  O   VAL A  11      25.652   7.389 -17.179  1.00  0.00    -0.271 OA
ATOM     77  CB  VAL A  11      27.110   4.788 -16.167  1.00  0.00    +0.029 C 
ATOM     78  CG1 VAL A  11      28.158   3.882 -16.831  1.00  0.00    +0.002 C 
ATOM     79  CG2 VAL A  11      27.847   6.079 -15.792  1.00  0.00    +0.002 C 
ATOM     80  N   PHE A  12      24.189   6.293 -15.874  1.00  0.00    -0.196 N 
ATOM     81  CA  PHE A  12      24.350   6.898 -14.555  1.00  0.00    +0.177 C 
ATOM     82  C   PHE A  12      25.167   5.967 -13.652  1.00  0.00    +0.262 C 
ATOM     83  O   PHE A  12      24.850   4.783 -13.520  1.00  0.00    -0.271 OA
ATOM     84  CB  PHE A  12      22.981   7.133 -13.907  1.00  0.00    +0.057 C 
ATOM     85  CG  PHE A  12      22.466   8.535 -14.101  1.00  0.00    -0.020 A 
ATOM     86  CD1 PHE A  12      22.284   9.374 -12.989  1.00  0.00    -0.004 A 
ATOM     87  CE1 PHE A  12      21.809  10.681 -13.168  1.00  0.00    -0.000 A 
ATOM     88  CD2 PHE A  12      22.181   9.005 -15.394  1.00  0.00    -0.004 A 
ATOM     89  CE2 PHE A  12      21.711  10.314 -15.573  1.00  0.00    -0.000 A 
ATOM     90  CZ  PHE A  12      21.522  11.151 -14.461  1.00  0.00    -0.000 A 
ATOM     91  N   ALA A  13      26.179   6.535 -13.001  1.00  0.00    -0.196 N 
ATOM     92  CA  ALA A  13      26.169   6.605 -11.552  1.00  0.00    +0.173 C 
ATOM     93  C   ALA A  13      25.335   7.822 -11.122  1.00  0.00    +0.262 C 
ATOM     94  O   ALA A  13      25.451   8.905 -11.705  1.00  0.00    -0.271 OA
ATOM     95  CB  ALA A  13      27.608   6.734 -11.042  1.00  0.00    +0.033 C 
ATOM     96  N   GLU A  14      24.539   7.647 -10.075  1.00  0.00    -0.196 N 
ATOM     97  CA  GLU A  14      24.415   8.687  -9.055  1.00  0.00    +0.173 C 
ATOM     98  C   GLU A  14      25.627   8.635  -8.114  1.00  0.00    +0.262 C 
ATOM     99  O   GLU A  14      26.327   7.618  -8.037  1.00  0.00    -0.271 OA
ATOM    100  CB  GLU A  14      23.097   8.521  -8.281  1.00  0.00    +0.043 C 
ATOM    101  CG  GLU A  14      23.200   7.751  -6.952  1.00  0.00    +0.116 C 
ATOM    102  CD  GLU A  14      22.245   6.588  -6.836  1.00  0.00    +0.365 C 
ATOM    103  OE1 GLU A  14      22.633   5.440  -7.155  1.00  0.00    -0.246 OA
ATOM    104  OE2 GLU A  14      21.100   6.811  -6.384  1.00  0.00    -0.246 OA
ATOM    105  N   SER A  15      25.824   9.682  -7.318  1.00  0.00    -0.194 N 
ATOM    106  CA  SER A  15      26.741   9.610  -6.180  1.00  0.00    +0.205 C 
ATOM    107  C   SER A  15      26.177   8.737  -5.053  1.00  0.00    +0.264 C 
ATOM    108  O   SER A  15      24.965   8.646  -4.856  1.00  0.00    -0.271 OA
ATOM    109  CB  SER A  15      27.056  11.008  -5.651  1.00  0.00    +0.213 C 
ATOM    110  OG  SER A  15      26.000  11.502  -4.857  1.00  0.00    -0.218 OA
ATOM    111  N   SER A  16      27.051   8.162  -4.230  1.00  0.00    -0.194 N 
ATOM    112  CA  SER A  16      26.641   7.686  -2.903  1.00  0.00    +0.205 C 
ATOM    113  C   SER A  16      26.245   8.847  -1.985  1.00  0.00    +0.264 C 
ATOM    114  O   SER A  16      25.570   8.644  -0.974  1.00  0.00    -0.271 OA
ATOM    115  CB  SER A  16      27.784   6.906  -2.254  1.00  0.00    +0.213 C 
ATOM    116  OG  SER A  16      28.901   7.750  -2.022  1.00  0.00    -0.218 OA
ATOM    117  N   ASP A  17      26.680  10.064  -2.308  1.00  0.00    -0.196 N 
ATOM    118  CA  ASP A  17      26.589  11.210  -1.423  1.00  0.00    +0.184 C 
ATOM    119  C   ASP A  17      25.190  11.821  -1.440  1.00  0.00    +0.262 C 
ATOM    120  O   ASP A  17      24.739  12.373  -2.447  1.00  0.00    -0.271 OA
ATOM    121  CB  ASP A  17      27.663  12.240  -1.795  1.00  0.00    +0.145 C 
ATOM    122  CG  ASP A  17      27.872  13.280  -0.691  1.00  0.00    +0.367 C 
ATOM    123  OD1 ASP A  17      26.894  13.745  -0.065  1.00  0.00    -0.246 OA
ATOM    124  OD2 ASP A  17      29.046  13.632  -0.430  1.00  0.00    -0.246 OA
ATOM    125  N   LYS A  18      24.525  11.787  -0.287  1.00  0.00    -0.196 N 
ATOM    126  CA  LYS A  18      23.442  12.721   0.028  1.00  0.00    +0.173 C 
ATOM    127  C   LYS A  18      23.675  13.363   1.380  1.00  0.00    +0.262 C 
ATOM    128  O   LYS A  18      24.362  12.816   2.245  1.00  0.00    -0.271 OA
ATOM    129  CB  LYS A  18      22.073  12.054  -0.029  1.00  0.00    +0.031 C 
ATOM    130  CG  LYS A  18      21.659  11.704  -1.457  1.00  0.00    +0.004 C 
ATOM    131  CD  LYS A  18      20.236  11.143  -1.446  1.00  0.00    +0.021 C 
ATOM    132  CE  LYS A  18      20.008  10.360  -2.733  1.00  0.00    +0.109 C 
ATOM    133  NZ  LYS A  18      19.504   8.996  -2.508  1.00  0.00    -0.131 NA
ATOM    134  N   LEU A  19      23.109  14.556   1.522  1.00  0.00    -0.196 N 
ATOM    135  CA  LEU A  19      23.869  15.714   1.996  1.00  0.00    +0.173 C 
ATOM    136  C   LEU A  19      23.919  15.836   3.514  1.00  0.00    +0.262 C 
ATOM    137  O   LEU A  19      24.280  16.891   4.041  1.00  0.00    -0.271 OA
ATOM    138  CB  LEU A  19      23.257  16.974   1.351  1.00  0.00    +0.031 C 
ATOM    139  CG  LEU A  19      24.273  18.056   0.954  1.00  0.00    +0.002 C 
ATOM    140  CD1 LEU A  19      23.534  19.255   0.363  1.00  0.00    +0.000 C 
ATOM    141  CD2 LEU A  19      25.187  17.581  -0.174  1.00  0.00    +0.000 C 
ATOM    142  N   ARG A  20      23.479  14.796   4.222  1.00  0.00    -0.196 N 
ATOM    143  CA  ARG A  20      23.084  14.906   5.617  1.00  0.00    +0.173 C 
ATOM    144  C   ARG A  20      24.258  15.273   6.511  1.00  0.00    +0.262 C 
ATOM    145  O   ARG A  20      25.349  14.723   6.373  1.00  0.00    -0.271 OA
ATOM    146  CB  ARG A  20      22.423  13.598   6.077  1.00  0.00    +0.033 C 
ATOM    147  CG  ARG A  20      21.672  13.713   7.411  1.00  0.00    +0.029 C 
ATOM    148  CD  ARG A  20      20.255  14.265   7.238  1.00  0.00    +0.129 C 
ATOM    149  NE  ARG A  20      20.234  15.670   6.786  1.00  0.00    -0.234 NA
ATOM    150  CZ  ARG A  20      19.433  16.617   7.226  1.00  0.00    +0.284 C 
ATOM    151  NH1 ARG A  20      18.408  16.345   7.980  1.00  0.00    -0.104 N 
ATOM    152  NH2 ARG A  20      19.643  17.861   6.901  1.00  0.00    -0.104 N 
ATOM    153  N   ARG A  21      24.029  16.168   7.468  1.00  0.00    -0.194 N 
ATOM    154  CA  ARG A  21      24.382  17.593   7.310  1.00  0.00    +0.198 C 
ATOM    155  C   ARG A  21      25.445  17.968   8.346  1.00  0.00    +0.384 C 
ATOM    156  O   ARG A  21      26.009  19.074   8.298  1.00  0.00    -0.244 OA
ATOM    157  CB  ARG A  21      23.112  18.454   7.420  1.00  0.00    +0.035 C 
ATOM    158  CG  ARG A  21      23.316  19.882   7.950  1.00  0.00    +0.029 C 
ATOM    159  CD  ARG A  21      24.103  20.776   6.982  1.00  0.00    +0.129 C 
ATOM    160  NE  ARG A  21      24.316  22.113   7.550  1.00  0.00    -0.234 NA
ATOM    161  CZ  ARG A  21      24.928  23.103   6.936  1.00  0.00    +0.284 C 
ATOM    162  NH1 ARG A  21      25.667  22.911   5.879  1.00  0.00    -0.104 N 
ATOM    163  NH2 ARG A  21      24.789  24.320   7.375  1.00  0.00    -0.104 N 
ATOM    164  OXT ARG A  21      25.741  17.142   9.229  1.00  0.00    -0.244 OA
ATOM    165  H   ASP A   1       1.490   9.679 -27.166  1.00  0.00    +0.000 HD
ATOM    166  H   ASP A   1       3.108   9.565 -27.545  1.00  0.00    +0.000 HD
ATOM    167  H   ASP A   1       3.712  12.884 -24.543  1.00  0.00    +0.000 HD
ATOM    168  H   LYS A   2       3.283  13.578 -25.738  1.00  0.00    +0.000 HD
ATOM    169  H   LYS A   2       6.796  16.183 -31.184  1.00  0.00    +0.000 HD
ATOM    170  H   LYS A   2       6.636  17.794 -30.794  1.00  0.00    +0.000 HD
ATOM    171  H   LEU A   3       7.558  15.765 -25.883  1.00  0.00    +0.000 HD
ATOM    172  H   ALA A   4       8.614  11.513 -26.716  1.00  0.00    +0.000 HD
ATOM    173  H   VAL A   5      12.665  12.910 -24.911  1.00  0.00    +0.000 HD
ATOM    174  H   THR A   6      13.991   9.226 -27.113  1.00  0.00    +0.000 HD
ATOM    175  H   THR A   6      13.046   6.691 -24.310  1.00  0.00    +0.000 HD
ATOM    176  H   ALA A   7      17.086   9.516 -25.644  1.00  0.00    +0.000 HD
ATOM    177  H   LEU A   8      18.477   5.308 -24.412  1.00  0.00    +0.000 HD
ATOM    178  H   LEU A   9      20.512   7.348 -20.896  1.00  0.00    +0.000 HD
ATOM    179  H   VAL A  10      23.601   3.828 -21.098  1.00  0.00    +0.000 HD
ATOM    180  H   VAL A  11      26.940   5.421 -18.840  1.00  0.00    +0.000 HD
ATOM    181  H   PHE A  12      23.343   5.853 -16.119  1.00  0.00    +0.000 HD
ATOM    182  H   ALA A  13      26.938   6.909 -13.504  1.00  0.00    +0.000 HD
ATOM    183  H   GLU A  14      24.028   6.811  -9.983  1.00  0.00    +0.000 HD
ATOM    184  H   GLU A  14      23.498   5.315  -7.491  1.00  0.00    +0.000 HD
ATOM    185  H   SER A  15      25.343  10.522  -7.498  1.00  0.00    +0.000 HD
ATOM    186  H   SER A  15      25.192  11.558  -5.392  1.00  0.00    +0.000 HD
ATOM    187  H   SER A  16      27.987   8.053  -4.516  1.00  0.00    +0.000 HD
ATOM    188  H   SER A  16      29.217   8.107  -2.866  1.00  0.00    +0.000 HD
ATOM    189  H   ASP A  17      27.084  10.193  -3.196  1.00  0.00    +0.000 HD
ATOM    190  H   ASP A  17      29.762  13.270  -0.913  1.00  0.00    +0.000 HD
ATOM    191  H   LYS A  18      24.771  11.106   0.380  1.00  0.00    +0.000 HD
ATOM    192  H   LYS A  18      18.596   9.041  -2.044  1.00  0.00    +0.000 HD
ATOM    193  H   LYS A  18      20.161   8.483  -1.920  1.00  0.00    +0.000 HD
ATOM    194  H   LEU A  19      22.155  14.664   1.302  1.00  0.00    +0.000 HD
ATOM    195  H   ARG A  20      23.419  13.917   3.783  1.00  0.00    +0.000 HD
ATOM    196  H   ARG A  20      18.223  15.414   8.242  1.00  0.00    +0.000 HD
ATOM    197  H   ARG A  20      17.816  17.070   8.288  1.00  0.00    +0.000 HD
ATOM    198  H   ARG A  20      19.040  18.565   7.234  1.00  0.00    +0.000 HD
ATOM    199  H   ARG A  20      20.405  18.098   6.324  1.00  0.00    +0.000 HD
ATOM    200  H   ARG A  21      23.610  15.870   8.307  1.00  0.00    +0.000 HD
ATOM    201  H   ARG A  21      25.779  19.689   7.629  1.00  0.00    +0.000 HD
ATOM    202  H   ARG A  21      25.790  22.001   5.524  1.00  0.00    +0.000 HD
ATOM    203  H   ARG A  21      26.101  23.675   5.436  1.00  0.00    +0.000 HD
ATOM    204  H   ARG A  21      24.238  24.496   8.171  1.00  0.00    +0.000 HD
ATOM    205  H   ARG A  21      25.236  25.065   6.911  1.00  0.00    +0.000 HD
ENDROOT
TORSDOF 0
